<?xml version="1.0" encoding="UTF-8"?>

<!-- generated on 2022-01-20 11:05:26 by Eclipse SUMO sumo Version 1.11.0
<configuration xmlns:xsi="http://www.w3.org/2001/XMLSchema-instance" xsi:noNamespaceSchemaLocation="http://sumo.dlr.de/xsd/sumoConfiguration.xsd">

    <input>
        <net-file value="/Users/hugues/sumo/ITSProjects/Project07-GLOSA/simulation_sumo/traffic_light_net.net.xml"/>
        <route-files value="/Users/hugues/sumo/ITSProjects/Project07-GLOSA/simulation_sumo/traffic_light_rou_sans_glosa.rou.xml"/>
    </input>

    <output>
        <emission-output value="/Users/hugues/sumo/ITSProjects/Project07-GLOSA/simulation_sumo/emission_test_0"/>
        <fcd-output value="/Users/hugues/sumo/ITSProjects/Project07-GLOSA/simulation_sumo/FCD_test_0"/>
        <queue-output value="/Users/hugues/sumo/ITSProjects/Project07-GLOSA/simulation_sumo/queue_0"/>
        <summary-output value="/Users/hugues/sumo/ITSProjects/Project07-GLOSA/simulation_sumo/summary_0"/>
        <tripinfo-output value="/Users/hugues/sumo/ITSProjects/Project07-GLOSA/simulation_sumo/trip_info_test_0"/>
    </output>

    <time>
        <begin value="0"/>
        <end value="3600"/>
    </time>

</configuration>
-->

<summary xmlns:xsi="http://www.w3.org/2001/XMLSchema-instance" xsi:noNamespaceSchemaLocation="http://sumo.dlr.de/xsd/summary_file.xsd">
    <step time="0.00" loaded="1" inserted="1" running="1" waiting="0" ended="0" arrived="0" collisions="0" teleports="0" halting="1" stopped="0" meanWaitingTime="0.00" meanTravelTime="-1.00" meanSpeed="0.00" meanSpeedRelative="0.00" duration="1642673126599"/>
    <step time="1.00" loaded="1" inserted="1" running="1" waiting="0" ended="0" arrived="0" collisions="0" teleports="0" halting="0" stopped="0" meanWaitingTime="0.00" meanTravelTime="-1.00" meanSpeed="2.02" meanSpeedRelative="0.15" duration="1642673126600"/>
    <step time="2.00" loaded="1" inserted="1" running="1" waiting="0" ended="0" arrived="0" collisions="0" teleports="0" halting="0" stopped="0" meanWaitingTime="0.00" meanTravelTime="-1.00" meanSpeed="3.85" meanSpeedRelative="0.28" duration="1642673126600"/>
    <step time="3.00" loaded="1" inserted="1" running="1" waiting="0" ended="0" arrived="0" collisions="0" teleports="0" halting="0" stopped="0" meanWaitingTime="0.00" meanTravelTime="-1.00" meanSpeed="6.19" meanSpeedRelative="0.45" duration="1642673126600"/>
    <step time="4.00" loaded="2" inserted="2" running="2" waiting="0" ended="0" arrived="0" collisions="0" teleports="0" halting="1" stopped="0" meanWaitingTime="0.50" meanTravelTime="-1.00" meanSpeed="4.36" meanSpeedRelative="0.31" duration="1642673126600"/>
    <step time="5.00" loaded="2" inserted="2" running="2" waiting="0" ended="0" arrived="0" collisions="0" teleports="0" halting="0" stopped="0" meanWaitingTime="0.50" meanTravelTime="-1.00" meanSpeed="6.44" meanSpeedRelative="0.46" duration="1642673126600"/>
    <step time="6.00" loaded="2" inserted="2" running="2" waiting="0" ended="0" arrived="0" collisions="0" teleports="0" halting="0" stopped="0" meanWaitingTime="0.50" meanTravelTime="-1.00" meanSpeed="8.55" meanSpeedRelative="0.62" duration="1642673126600"/>
    <step time="7.00" loaded="2" inserted="2" running="2" waiting="0" ended="0" arrived="0" collisions="0" teleports="0" halting="0" stopped="0" meanWaitingTime="0.50" meanTravelTime="-1.00" meanSpeed="9.53" meanSpeedRelative="0.69" duration="1642673126600"/>
    <step time="8.00" loaded="3" inserted="3" running="3" waiting="0" ended="0" arrived="0" collisions="0" teleports="0" halting="1" stopped="0" meanWaitingTime="0.67" meanTravelTime="-1.00" meanSpeed="7.06" meanSpeedRelative="0.51" duration="1642673126600"/>
    <step time="9.00" loaded="3" inserted="3" running="3" waiting="0" ended="0" arrived="0" collisions="0" teleports="0" halting="0" stopped="0" meanWaitingTime="0.67" meanTravelTime="-1.00" meanSpeed="8.67" meanSpeedRelative="0.62" duration="1642673126600"/>
    <step time="10.00" loaded="3" inserted="3" running="3" waiting="0" ended="0" arrived="0" collisions="0" teleports="0" halting="0" stopped="0" meanWaitingTime="0.67" meanTravelTime="-1.00" meanSpeed="9.08" meanSpeedRelative="0.65" duration="1642673126600"/>
    <step time="11.00" loaded="4" inserted="4" running="4" waiting="0" ended="0" arrived="0" collisions="0" teleports="0" halting="1" stopped="0" meanWaitingTime="0.75" meanTravelTime="-1.00" meanSpeed="6.86" meanSpeedRelative="0.49" duration="1642673126600"/>
    <step time="12.00" loaded="4" inserted="4" running="4" waiting="0" ended="0" arrived="0" collisions="0" teleports="0" halting="0" stopped="0" meanWaitingTime="0.75" meanTravelTime="-1.00" meanSpeed="7.99" meanSpeedRelative="0.58" duration="1642673126600"/>
    <step time="13.00" loaded="4" inserted="4" running="4" waiting="0" ended="0" arrived="0" collisions="0" teleports="0" halting="0" stopped="0" meanWaitingTime="0.75" meanTravelTime="-1.00" meanSpeed="8.96" meanSpeedRelative="0.64" duration="1642673126601"/>
    <step time="14.00" loaded="4" inserted="4" running="4" waiting="0" ended="0" arrived="0" collisions="0" teleports="0" halting="0" stopped="0" meanWaitingTime="0.75" meanTravelTime="-1.00" meanSpeed="10.02" meanSpeedRelative="0.72" duration="1642673126601"/>
    <step time="15.00" loaded="5" inserted="5" running="5" waiting="0" ended="0" arrived="0" collisions="0" teleports="0" halting="1" stopped="0" meanWaitingTime="0.80" meanTravelTime="-1.00" meanSpeed="8.65" meanSpeedRelative="0.62" duration="1642673126601"/>
    <step time="16.00" loaded="5" inserted="5" running="5" waiting="0" ended="0" arrived="0" collisions="0" teleports="0" halting="0" stopped="0" meanWaitingTime="0.80" meanTravelTime="-1.00" meanSpeed="9.31" meanSpeedRelative="0.67" duration="1642673126601"/>
    <step time="17.00" loaded="5" inserted="5" running="5" waiting="0" ended="0" arrived="0" collisions="0" teleports="0" halting="0" stopped="0" meanWaitingTime="0.80" meanTravelTime="-1.00" meanSpeed="10.03" meanSpeedRelative="0.72" duration="1642673126601"/>
    <step time="18.00" loaded="6" inserted="6" running="6" waiting="0" ended="0" arrived="0" collisions="0" teleports="0" halting="1" stopped="0" meanWaitingTime="0.67" meanTravelTime="-1.00" meanSpeed="9.03" meanSpeedRelative="0.65" duration="1642673126601"/>
    <step time="19.00" loaded="6" inserted="6" running="6" waiting="0" ended="0" arrived="0" collisions="0" teleports="0" halting="0" stopped="0" meanWaitingTime="0.67" meanTravelTime="-1.00" meanSpeed="9.56" meanSpeedRelative="0.69" duration="1642673126601"/>
    <step time="20.00" loaded="6" inserted="6" running="6" waiting="0" ended="0" arrived="0" collisions="0" teleports="0" halting="0" stopped="0" meanWaitingTime="0.67" meanTravelTime="-1.00" meanSpeed="10.20" meanSpeedRelative="0.73" duration="1642673126601"/>
    <step time="21.00" loaded="6" inserted="6" running="6" waiting="0" ended="0" arrived="0" collisions="0" teleports="0" halting="0" stopped="0" meanWaitingTime="0.67" meanTravelTime="-1.00" meanSpeed="10.97" meanSpeedRelative="0.79" duration="1642673126602"/>
    <step time="22.00" loaded="7" inserted="7" running="7" waiting="0" ended="0" arrived="0" collisions="0" teleports="0" halting="1" stopped="0" meanWaitingTime="0.71" meanTravelTime="-1.00" meanSpeed="9.47" meanSpeedRelative="0.68" duration="1642673126602"/>
    <step time="23.00" loaded="7" inserted="7" running="7" waiting="0" ended="0" arrived="0" collisions="0" teleports="0" halting="0" stopped="0" meanWaitingTime="0.71" meanTravelTime="-1.00" meanSpeed="10.32" meanSpeedRelative="0.74" duration="1642673126602"/>
    <step time="24.00" loaded="7" inserted="7" running="7" waiting="0" ended="0" arrived="0" collisions="0" teleports="0" halting="0" stopped="0" meanWaitingTime="0.71" meanTravelTime="-1.00" meanSpeed="10.60" meanSpeedRelative="0.76" duration="1642673126602"/>
    <step time="25.00" loaded="7" inserted="7" running="7" waiting="0" ended="0" arrived="0" collisions="0" teleports="0" halting="0" stopped="0" meanWaitingTime="0.71" meanTravelTime="-1.00" meanSpeed="11.19" meanSpeedRelative="0.81" duration="1642673126602"/>
    <step time="26.00" loaded="8" inserted="8" running="8" waiting="0" ended="0" arrived="0" collisions="0" teleports="0" halting="1" stopped="0" meanWaitingTime="0.75" meanTravelTime="-1.00" meanSpeed="10.11" meanSpeedRelative="0.73" duration="1642673126602"/>
    <step time="27.00" loaded="8" inserted="8" running="8" waiting="0" ended="0" arrived="0" collisions="0" teleports="0" halting="0" stopped="0" meanWaitingTime="0.75" meanTravelTime="-1.00" meanSpeed="10.49" meanSpeedRelative="0.76" duration="1642673126603"/>
    <step time="28.00" loaded="8" inserted="8" running="8" waiting="0" ended="0" arrived="0" collisions="0" teleports="0" halting="0" stopped="0" meanWaitingTime="0.75" meanTravelTime="-1.00" meanSpeed="11.04" meanSpeedRelative="0.79" duration="1642673126603"/>
    <step time="29.00" loaded="9" inserted="9" running="9" waiting="0" ended="0" arrived="0" collisions="0" teleports="0" halting="1" stopped="0" meanWaitingTime="0.78" meanTravelTime="-1.00" meanSpeed="10.03" meanSpeedRelative="0.72" duration="1642673126603"/>
    <step time="30.00" loaded="9" inserted="9" running="9" waiting="0" ended="0" arrived="0" collisions="0" teleports="0" halting="0" stopped="0" meanWaitingTime="0.78" meanTravelTime="-1.00" meanSpeed="10.78" meanSpeedRelative="0.78" duration="1642673126603"/>
    <step time="31.00" loaded="9" inserted="9" running="9" waiting="0" ended="0" arrived="0" collisions="0" teleports="0" halting="0" stopped="0" meanWaitingTime="0.78" meanTravelTime="-1.00" meanSpeed="10.93" meanSpeedRelative="0.79" duration="1642673126603"/>
    <step time="32.00" loaded="9" inserted="9" running="9" waiting="0" ended="0" arrived="0" collisions="0" teleports="0" halting="0" stopped="0" meanWaitingTime="0.78" meanTravelTime="-1.00" meanSpeed="11.69" meanSpeedRelative="0.84" duration="1642673126603"/>
    <step time="33.00" loaded="10" inserted="10" running="10" waiting="0" ended="0" arrived="0" collisions="0" teleports="0" halting="1" stopped="0" meanWaitingTime="0.80" meanTravelTime="-1.00" meanSpeed="10.58" meanSpeedRelative="0.76" duration="1642673126604"/>
    <step time="34.00" loaded="10" inserted="10" running="10" waiting="0" ended="0" arrived="0" collisions="0" teleports="0" halting="0" stopped="0" meanWaitingTime="0.80" meanTravelTime="-1.00" meanSpeed="10.98" meanSpeedRelative="0.79" duration="1642673126604"/>
    <step time="35.00" loaded="10" inserted="10" running="10" waiting="0" ended="0" arrived="0" collisions="0" teleports="0" halting="0" stopped="0" meanWaitingTime="0.80" meanTravelTime="-1.00" meanSpeed="11.19" meanSpeedRelative="0.81" duration="1642673126604"/>
    <step time="36.00" loaded="11" inserted="11" running="11" waiting="0" ended="0" arrived="0" collisions="0" teleports="0" halting="1" stopped="0" meanWaitingTime="0.73" meanTravelTime="-1.00" meanSpeed="10.61" meanSpeedRelative="0.76" duration="1642673126604"/>
    <step time="37.00" loaded="11" inserted="11" running="11" waiting="0" ended="0" arrived="0" collisions="0" teleports="0" halting="0" stopped="0" meanWaitingTime="0.73" meanTravelTime="-1.00" meanSpeed="11.21" meanSpeedRelative="0.81" duration="1642673126605"/>
    <step time="38.00" loaded="11" inserted="11" running="11" waiting="0" ended="0" arrived="0" collisions="0" teleports="0" halting="0" stopped="0" meanWaitingTime="0.73" meanTravelTime="-1.00" meanSpeed="11.49" meanSpeedRelative="0.83" duration="1642673126605"/>
    <step time="39.00" loaded="11" inserted="11" running="11" waiting="0" ended="0" arrived="0" collisions="0" teleports="0" halting="0" stopped="0" meanWaitingTime="0.73" meanTravelTime="-1.00" meanSpeed="11.87" meanSpeedRelative="0.85" duration="1642673126605"/>
    <step time="40.00" loaded="12" inserted="12" running="12" waiting="0" ended="0" arrived="0" collisions="0" teleports="0" halting="1" stopped="0" meanWaitingTime="0.75" meanTravelTime="-1.00" meanSpeed="11.19" meanSpeedRelative="0.81" duration="1642673126605"/>
    <step time="41.00" loaded="12" inserted="12" running="12" waiting="0" ended="0" arrived="0" collisions="0" teleports="0" halting="0" stopped="0" meanWaitingTime="0.75" meanTravelTime="-1.00" meanSpeed="11.29" meanSpeedRelative="0.81" duration="1642673126606"/>
    <step time="42.00" loaded="12" inserted="12" running="12" waiting="0" ended="0" arrived="0" collisions="0" teleports="0" halting="0" stopped="0" meanWaitingTime="0.75" meanTravelTime="-1.00" meanSpeed="11.75" meanSpeedRelative="0.85" duration="1642673126606"/>
    <step time="43.00" loaded="12" inserted="12" running="12" waiting="0" ended="0" arrived="0" collisions="0" teleports="0" halting="0" stopped="0" meanWaitingTime="0.75" meanTravelTime="-1.00" meanSpeed="12.06" meanSpeedRelative="0.87" duration="1642673126606"/>
    <step time="44.00" loaded="13" inserted="13" running="13" waiting="0" ended="0" arrived="0" collisions="0" teleports="0" halting="1" stopped="0" meanWaitingTime="0.77" meanTravelTime="-1.00" meanSpeed="11.21" meanSpeedRelative="0.81" duration="1642673126606"/>
    <step time="45.00" loaded="13" inserted="13" running="13" waiting="0" ended="0" arrived="0" collisions="0" teleports="0" halting="0" stopped="0" meanWaitingTime="0.77" meanTravelTime="-1.00" meanSpeed="11.42" meanSpeedRelative="0.82" duration="1642673126607"/>
    <step time="46.00" loaded="13" inserted="13" running="13" waiting="0" ended="0" arrived="0" collisions="0" teleports="0" halting="0" stopped="0" meanWaitingTime="0.77" meanTravelTime="-1.00" meanSpeed="11.92" meanSpeedRelative="0.86" duration="1642673126607"/>
    <step time="47.00" loaded="14" inserted="14" running="14" waiting="0" ended="0" arrived="0" collisions="0" teleports="0" halting="1" stopped="0" meanWaitingTime="0.79" meanTravelTime="-1.00" meanSpeed="11.20" meanSpeedRelative="0.81" duration="1642673126607"/>
    <step time="48.00" loaded="14" inserted="14" running="14" waiting="0" ended="0" arrived="0" collisions="0" teleports="0" halting="0" stopped="0" meanWaitingTime="0.79" meanTravelTime="-1.00" meanSpeed="11.36" meanSpeedRelative="0.82" duration="1642673126608"/>
    <step time="49.00" loaded="14" inserted="14" running="14" waiting="0" ended="0" arrived="0" collisions="0" teleports="0" halting="0" stopped="0" meanWaitingTime="0.79" meanTravelTime="-1.00" meanSpeed="11.54" meanSpeedRelative="0.83" duration="1642673126608"/>
    <step time="50.00" loaded="14" inserted="14" running="14" waiting="0" ended="0" arrived="0" collisions="0" teleports="0" halting="0" stopped="0" meanWaitingTime="0.79" meanTravelTime="-1.00" meanSpeed="12.09" meanSpeedRelative="0.87" duration="1642673126608"/>
    <step time="51.00" loaded="15" inserted="15" running="15" waiting="0" ended="0" arrived="0" collisions="0" teleports="0" halting="1" stopped="0" meanWaitingTime="0.80" meanTravelTime="-1.00" meanSpeed="11.46" meanSpeedRelative="0.83" duration="1642673126609"/>
    <step time="52.00" loaded="15" inserted="15" running="15" waiting="0" ended="0" arrived="0" collisions="0" teleports="0" halting="0" stopped="0" meanWaitingTime="0.80" meanTravelTime="-1.00" meanSpeed="11.69" meanSpeedRelative="0.84" duration="1642673126609"/>
    <step time="53.00" loaded="15" inserted="15" running="15" waiting="0" ended="0" arrived="0" collisions="0" teleports="0" halting="0" stopped="0" meanWaitingTime="0.80" meanTravelTime="-1.00" meanSpeed="12.10" meanSpeedRelative="0.87" duration="1642673126609"/>
    <step time="54.00" loaded="16" inserted="16" running="16" waiting="0" ended="0" arrived="0" collisions="0" teleports="0" halting="1" stopped="0" meanWaitingTime="0.75" meanTravelTime="-1.00" meanSpeed="11.54" meanSpeedRelative="0.83" duration="1642673126610"/>
    <step time="55.00" loaded="16" inserted="16" running="16" waiting="0" ended="0" arrived="0" collisions="0" teleports="0" halting="0" stopped="0" meanWaitingTime="0.75" meanTravelTime="-1.00" meanSpeed="12.01" meanSpeedRelative="0.86" duration="1642673126610"/>
    <step time="56.00" loaded="16" inserted="16" running="16" waiting="0" ended="0" arrived="0" collisions="0" teleports="0" halting="0" stopped="0" meanWaitingTime="0.75" meanTravelTime="-1.00" meanSpeed="12.18" meanSpeedRelative="0.88" duration="1642673126610"/>
    <step time="57.00" loaded="16" inserted="16" running="16" waiting="0" ended="0" arrived="0" collisions="0" teleports="0" halting="0" stopped="0" meanWaitingTime="0.75" meanTravelTime="-1.00" meanSpeed="12.35" meanSpeedRelative="0.89" duration="1642673126611"/>
    <step time="58.00" loaded="17" inserted="17" running="17" waiting="0" ended="0" arrived="0" collisions="0" teleports="0" halting="1" stopped="0" meanWaitingTime="0.76" meanTravelTime="-1.00" meanSpeed="11.80" meanSpeedRelative="0.85" duration="1642673126611"/>
    <step time="59.00" loaded="17" inserted="17" running="17" waiting="0" ended="0" arrived="0" collisions="0" teleports="0" halting="0" stopped="0" meanWaitingTime="0.76" meanTravelTime="-1.00" meanSpeed="11.88" meanSpeedRelative="0.86" duration="1642673126611"/>
    <step time="60.00" loaded="17" inserted="17" running="17" waiting="0" ended="0" arrived="0" collisions="0" teleports="0" halting="0" stopped="0" meanWaitingTime="0.76" meanTravelTime="-1.00" meanSpeed="12.28" meanSpeedRelative="0.88" duration="1642673126612"/>
    <step time="61.00" loaded="17" inserted="17" running="17" waiting="0" ended="0" arrived="0" collisions="0" teleports="0" halting="0" stopped="0" meanWaitingTime="0.76" meanTravelTime="-1.00" meanSpeed="12.48" meanSpeedRelative="0.90" duration="1642673126612"/>
    <step time="62.00" loaded="18" inserted="18" running="18" waiting="0" ended="0" arrived="0" collisions="0" teleports="0" halting="1" stopped="0" meanWaitingTime="0.78" meanTravelTime="-1.00" meanSpeed="11.89" meanSpeedRelative="0.86" duration="1642673126612"/>
    <step time="63.00" loaded="18" inserted="18" running="18" waiting="0" ended="0" arrived="0" collisions="0" teleports="0" halting="0" stopped="0" meanWaitingTime="0.78" meanTravelTime="-1.00" meanSpeed="12.19" meanSpeedRelative="0.88" duration="1642673126613"/>
    <step time="64.00" loaded="18" inserted="18" running="18" waiting="0" ended="0" arrived="0" collisions="0" teleports="0" halting="0" stopped="0" meanWaitingTime="0.78" meanTravelTime="-1.00" meanSpeed="12.19" meanSpeedRelative="0.88" duration="1642673126613"/>
    <step time="65.00" loaded="19" inserted="19" running="19" waiting="0" ended="0" arrived="0" collisions="0" teleports="0" halting="1" stopped="0" meanWaitingTime="0.79" meanTravelTime="-1.00" meanSpeed="11.91" meanSpeedRelative="0.86" duration="1642673126613"/>
    <step time="66.00" loaded="19" inserted="19" running="19" waiting="0" ended="0" arrived="0" collisions="0" teleports="0" halting="0" stopped="0" meanWaitingTime="0.79" meanTravelTime="-1.00" meanSpeed="11.94" meanSpeedRelative="0.86" duration="1642673126614"/>
    <step time="67.00" loaded="19" inserted="19" running="19" waiting="0" ended="0" arrived="0" collisions="0" teleports="0" halting="0" stopped="0" meanWaitingTime="0.79" meanTravelTime="-1.00" meanSpeed="12.09" meanSpeedRelative="0.87" duration="1642673126614"/>
    <step time="68.00" loaded="19" inserted="19" running="19" waiting="0" ended="0" arrived="0" collisions="0" teleports="0" halting="0" stopped="0" meanWaitingTime="0.79" meanTravelTime="-1.00" meanSpeed="12.45" meanSpeedRelative="0.90" duration="1642673126615"/>
    <step time="69.00" loaded="20" inserted="20" running="20" waiting="0" ended="0" arrived="0" collisions="0" teleports="0" halting="1" stopped="0" meanWaitingTime="0.80" meanTravelTime="-1.00" meanSpeed="11.79" meanSpeedRelative="0.85" duration="1642673126615"/>
    <step time="70.00" loaded="20" inserted="20" running="20" waiting="0" ended="0" arrived="0" collisions="0" teleports="0" halting="0" stopped="0" meanWaitingTime="0.80" meanTravelTime="-1.00" meanSpeed="12.02" meanSpeedRelative="0.87" duration="1642673126615"/>
    <step time="71.00" loaded="20" inserted="20" running="20" waiting="0" ended="0" arrived="0" collisions="0" teleports="0" halting="0" stopped="0" meanWaitingTime="0.80" meanTravelTime="-1.00" meanSpeed="12.08" meanSpeedRelative="0.87" duration="1642673126616"/>
    <step time="72.00" loaded="21" inserted="21" running="21" waiting="0" ended="0" arrived="0" collisions="0" teleports="0" halting="1" stopped="0" meanWaitingTime="0.76" meanTravelTime="-1.00" meanSpeed="11.72" meanSpeedRelative="0.84" duration="1642673126616"/>
    <step time="73.00" loaded="21" inserted="21" running="21" waiting="0" ended="0" arrived="0" collisions="0" teleports="0" halting="0" stopped="0" meanWaitingTime="0.76" meanTravelTime="-1.00" meanSpeed="11.80" meanSpeedRelative="0.85" duration="1642673126617"/>
    <step time="74.00" loaded="21" inserted="21" running="21" waiting="0" ended="0" arrived="0" collisions="0" teleports="0" halting="0" stopped="0" meanWaitingTime="0.76" meanTravelTime="-1.00" meanSpeed="12.07" meanSpeedRelative="0.87" duration="1642673126617"/>
    <step time="75.00" loaded="21" inserted="21" running="21" waiting="0" ended="0" arrived="0" collisions="0" teleports="0" halting="0" stopped="0" meanWaitingTime="0.76" meanTravelTime="-1.00" meanSpeed="12.28" meanSpeedRelative="0.88" duration="1642673126617"/>
    <step time="76.00" loaded="22" inserted="22" running="22" waiting="0" ended="0" arrived="0" collisions="0" teleports="0" halting="1" stopped="0" meanWaitingTime="0.77" meanTravelTime="-1.00" meanSpeed="11.93" meanSpeedRelative="0.86" duration="1642673126618"/>
    <step time="77.00" loaded="22" inserted="22" running="22" waiting="0" ended="0" arrived="0" collisions="0" teleports="0" halting="0" stopped="0" meanWaitingTime="0.77" meanTravelTime="-1.00" meanSpeed="11.95" meanSpeedRelative="0.86" duration="1642673126618"/>
    <step time="78.00" loaded="22" inserted="22" running="22" waiting="0" ended="0" arrived="0" collisions="0" teleports="0" halting="0" stopped="0" meanWaitingTime="0.77" meanTravelTime="-1.00" meanSpeed="12.39" meanSpeedRelative="0.89" duration="1642673126619"/>
    <step time="79.00" loaded="22" inserted="22" running="22" waiting="0" ended="0" arrived="0" collisions="0" teleports="0" halting="0" stopped="0" meanWaitingTime="0.77" meanTravelTime="-1.00" meanSpeed="12.61" meanSpeedRelative="0.91" duration="1642673126619"/>
    <step time="80.00" loaded="23" inserted="23" running="23" waiting="0" ended="0" arrived="0" collisions="0" teleports="0" halting="1" stopped="0" meanWaitingTime="0.78" meanTravelTime="-1.00" meanSpeed="12.11" meanSpeedRelative="0.87" duration="1642673126620"/>
    <step time="81.00" loaded="23" inserted="23" running="23" waiting="0" ended="0" arrived="0" collisions="0" teleports="0" halting="0" stopped="0" meanWaitingTime="0.78" meanTravelTime="-1.00" meanSpeed="12.20" meanSpeedRelative="0.88" duration="1642673126620"/>
    <step time="82.00" loaded="23" inserted="23" running="23" waiting="0" ended="0" arrived="0" collisions="0" teleports="0" halting="0" stopped="0" meanWaitingTime="0.78" meanTravelTime="-1.00" meanSpeed="12.55" meanSpeedRelative="0.90" duration="1642673126620"/>
    <step time="83.00" loaded="24" inserted="24" running="24" waiting="0" ended="0" arrived="0" collisions="0" teleports="0" halting="1" stopped="0" meanWaitingTime="0.79" meanTravelTime="-1.00" meanSpeed="12.06" meanSpeedRelative="0.87" duration="1642673126621"/>
    <step time="84.00" loaded="24" inserted="24" running="24" waiting="0" ended="0" arrived="0" collisions="0" teleports="0" halting="0" stopped="0" meanWaitingTime="0.79" meanTravelTime="-1.00" meanSpeed="12.11" meanSpeedRelative="0.87" duration="1642673126621"/>
    <step time="85.00" loaded="24" inserted="24" running="24" waiting="0" ended="0" arrived="0" collisions="0" teleports="0" halting="0" stopped="0" meanWaitingTime="0.79" meanTravelTime="-1.00" meanSpeed="12.27" meanSpeedRelative="0.88" duration="1642673126622"/>
    <step time="86.00" loaded="24" inserted="24" running="24" waiting="0" ended="0" arrived="0" collisions="0" teleports="0" halting="0" stopped="0" meanWaitingTime="0.79" meanTravelTime="-1.00" meanSpeed="12.50" meanSpeedRelative="0.90" duration="1642673126622"/>
    <step time="87.00" loaded="25" inserted="25" running="25" waiting="0" ended="0" arrived="0" collisions="0" teleports="0" halting="1" stopped="0" meanWaitingTime="0.80" meanTravelTime="-1.00" meanSpeed="12.22" meanSpeedRelative="0.88" duration="1642673126623"/>
    <step time="88.00" loaded="25" inserted="25" running="25" waiting="0" ended="0" arrived="0" collisions="0" teleports="0" halting="0" stopped="0" meanWaitingTime="0.80" meanTravelTime="-1.00" meanSpeed="12.39" meanSpeedRelative="0.89" duration="1642673126623"/>
    <step time="89.00" loaded="25" inserted="25" running="25" waiting="0" ended="0" arrived="0" collisions="0" teleports="0" halting="0" stopped="0" meanWaitingTime="0.80" meanTravelTime="-1.00" meanSpeed="12.28" meanSpeedRelative="0.88" duration="1642673126624"/>
    <step time="90.00" loaded="26" inserted="26" running="26" waiting="0" ended="0" arrived="0" collisions="0" teleports="0" halting="1" stopped="0" meanWaitingTime="0.77" meanTravelTime="-1.00" meanSpeed="11.68" meanSpeedRelative="0.84" duration="1642673126624"/>
    <step time="91.00" loaded="26" inserted="26" running="25" waiting="0" ended="1" arrived="1" collisions="0" teleports="0" halting="0" stopped="0" meanWaitingTime="0.77" meanTravelTime="91.00" meanSpeed="11.80" meanSpeedRelative="0.85" duration="1642673126625"/>
    <step time="92.00" loaded="26" inserted="26" running="25" waiting="0" ended="1" arrived="1" collisions="0" teleports="0" halting="1" stopped="0" meanWaitingTime="0.77" meanTravelTime="91.00" meanSpeed="11.98" meanSpeedRelative="0.86" duration="1642673126626"/>
    <step time="93.00" loaded="26" inserted="26" running="25" waiting="0" ended="1" arrived="1" collisions="0" teleports="0" halting="1" stopped="0" meanWaitingTime="0.77" meanTravelTime="91.00" meanSpeed="12.03" meanSpeedRelative="0.87" duration="1642673126626"/>
    <step time="94.00" loaded="27" inserted="27" running="26" waiting="0" ended="1" arrived="1" collisions="0" teleports="0" halting="2" stopped="0" meanWaitingTime="0.78" meanTravelTime="91.00" meanSpeed="11.42" meanSpeedRelative="0.82" duration="1642673126626"/>
    <step time="95.00" loaded="27" inserted="27" running="26" waiting="0" ended="1" arrived="1" collisions="0" teleports="0" halting="1" stopped="0" meanWaitingTime="0.78" meanTravelTime="91.00" meanSpeed="11.14" meanSpeedRelative="0.80" duration="1642673126627"/>
    <step time="96.00" loaded="27" inserted="27" running="26" waiting="0" ended="1" arrived="1" collisions="0" teleports="0" halting="1" stopped="0" meanWaitingTime="0.78" meanTravelTime="91.00" meanSpeed="10.68" meanSpeedRelative="0.77" duration="1642673126627"/>
    <step time="97.00" loaded="27" inserted="27" running="26" waiting="0" ended="1" arrived="1" collisions="0" teleports="0" halting="1" stopped="0" meanWaitingTime="0.78" meanTravelTime="91.00" meanSpeed="10.72" meanSpeedRelative="0.77" duration="1642673126628"/>
    <step time="98.00" loaded="28" inserted="28" running="27" waiting="0" ended="1" arrived="1" collisions="0" teleports="0" halting="4" stopped="0" meanWaitingTime="0.79" meanTravelTime="91.00" meanSpeed="10.19" meanSpeedRelative="0.73" duration="1642673126628"/>
    <step time="99.00" loaded="28" inserted="28" running="27" waiting="0" ended="1" arrived="1" collisions="0" teleports="0" halting="3" stopped="0" meanWaitingTime="0.79" meanTravelTime="91.00" meanSpeed="10.02" meanSpeedRelative="0.72" duration="1642673126629"/>
    <step time="100.00" loaded="28" inserted="28" running="27" waiting="0" ended="1" arrived="1" collisions="0" teleports="0" halting="4" stopped="0" meanWaitingTime="0.79" meanTravelTime="91.00" meanSpeed="9.91" meanSpeedRelative="0.71" duration="1642673126629"/>
    <step time="101.00" loaded="29" inserted="29" running="28" waiting="0" ended="1" arrived="1" collisions="0" teleports="0" halting="5" stopped="0" meanWaitingTime="0.79" meanTravelTime="91.00" meanSpeed="9.43" meanSpeedRelative="0.68" duration="1642673126630"/>
    <step time="102.00" loaded="29" inserted="29" running="28" waiting="0" ended="1" arrived="1" collisions="0" teleports="0" halting="5" stopped="0" meanWaitingTime="0.79" meanTravelTime="91.00" meanSpeed="9.37" meanSpeedRelative="0.67" duration="1642673126630"/>
    <step time="103.00" loaded="29" inserted="29" running="28" waiting="0" ended="1" arrived="1" collisions="0" teleports="0" halting="5" stopped="0" meanWaitingTime="0.79" meanTravelTime="91.00" meanSpeed="9.36" meanSpeedRelative="0.67" duration="1642673126631"/>
    <step time="104.00" loaded="29" inserted="29" running="28" waiting="0" ended="1" arrived="1" collisions="0" teleports="0" halting="7" stopped="0" meanWaitingTime="0.79" meanTravelTime="91.00" meanSpeed="9.37" meanSpeedRelative="0.67" duration="1642673126631"/>
    <step time="105.00" loaded="30" inserted="30" running="29" waiting="0" ended="1" arrived="1" collisions="0" teleports="0" halting="8" stopped="0" meanWaitingTime="0.80" meanTravelTime="91.00" meanSpeed="9.22" meanSpeedRelative="0.66" duration="1642673126632"/>
    <step time="106.00" loaded="30" inserted="30" running="29" waiting="0" ended="1" arrived="1" collisions="0" teleports="0" halting="7" stopped="0" meanWaitingTime="0.80" meanTravelTime="91.00" meanSpeed="9.40" meanSpeedRelative="0.68" duration="1642673126632"/>
    <step time="107.00" loaded="30" inserted="30" running="29" waiting="0" ended="1" arrived="1" collisions="0" teleports="0" halting="7" stopped="0" meanWaitingTime="0.80" meanTravelTime="91.00" meanSpeed="9.45" meanSpeedRelative="0.68" duration="1642673126633"/>