<?xml version="1.0" encoding="UTF-8"?>

<!-- generated on 2022-01-20 11:05:26 by Eclipse SUMO sumo Version 1.11.0
<configuration xmlns:xsi="http://www.w3.org/2001/XMLSchema-instance" xsi:noNamespaceSchemaLocation="http://sumo.dlr.de/xsd/sumoConfiguration.xsd">

    <input>
        <net-file value="/Users/hugues/sumo/ITSProjects/Project07-GLOSA/simulation_sumo/traffic_light_net.net.xml"/>
        <route-files value="/Users/hugues/sumo/ITSProjects/Project07-GLOSA/simulation_sumo/traffic_light_rou_sans_glosa.rou.xml"/>
    </input>

    <output>
        <emission-output value="/Users/hugues/sumo/ITSProjects/Project07-GLOSA/simulation_sumo/emission_test_0"/>
        <fcd-output value="/Users/hugues/sumo/ITSProjects/Project07-GLOSA/simulation_sumo/FCD_test_0"/>
        <queue-output value="/Users/hugues/sumo/ITSProjects/Project07-GLOSA/simulation_sumo/queue_0"/>
        <summary-output value="/Users/hugues/sumo/ITSProjects/Project07-GLOSA/simulation_sumo/summary_0"/>
        <tripinfo-output value="/Users/hugues/sumo/ITSProjects/Project07-GLOSA/simulation_sumo/trip_info_test_0"/>
    </output>

    <time>
        <begin value="0"/>
        <end value="3600"/>
    </time>

</configuration>
-->

<tripinfos xmlns:xsi="http://www.w3.org/2001/XMLSchema-instance" xsi:noNamespaceSchemaLocation="http://sumo.dlr.de/xsd/tripinfo_file.xsd">
    <tripinfo id="myflow.0" depart="0.00" departLane="1to2_0" departPos="5.10" departSpeed="0.00" departDelay="0.00" arrival="91.00" arrivalLane="2to3_0" arrivalPos="96.00" arrivalSpeed="12.90" duration="91.00" routeLength="1094.90" waitingTime="0.00" waitingCount="0" stopTime="0.00" timeLoss="6.46" rerouteNo="0" devices="tripinfo_myflow.0 routing_myflow.0 emissions_myflow.0 fcd_myflow.0" vType="normal" speedFactor="0.94" vaporized="">
        <emissions CO_abs="2444.530417" CO2_abs="1282754.471244" HC_abs="591.954298" PMx_abs="485.030413" NOx_abs="16177.141644" fuel_abs="511.414271" electricity_abs="0"/>
    </tripinfo>
    <tripinfo id="myflow.3" depart="11.00" departLane="1to2_1" departPos="5.10" departSpeed="0.00" departDelay="0.20" arrival="146.00" arrivalLane="2to3_0" arrivalPos="96.00" arrivalSpeed="12.56" duration="135.00" routeLength="1094.90" waitingTime="43.00" waitingCount="1" stopTime="0.00" timeLoss="55.28" rerouteNo="0" devices="tripinfo_myflow.3 routing_myflow.3 emissions_myflow.3 fcd_myflow.3" vType="normal" speedFactor="1.00" vaporized="">
        <emissions CO_abs="3066.651198" CO2_abs="1366068.837139" HC_abs="909.127978" PMx_abs="605.089691" NOx_abs="16723.508065" fuel_abs="544.630399" electricity_abs="0"/>
    </tripinfo>
    <tripinfo id="myflow.5" depart="18.00" departLane="1to2_1" departPos="5.10" departSpeed="0.00" departDelay="0.00" arrival="146.00" arrivalLane="2to3_1" arrivalPos="96.00" arrivalSpeed="13.42" duration="128.00" routeLength="1094.90" waitingTime="37.00" waitingCount="1" stopTime="0.00" timeLoss="49.59" rerouteNo="0" devices="tripinfo_myflow.5 routing_myflow.5 emissions_myflow.5 fcd_myflow.5" vType="normal" speedFactor="1.01" vaporized="">
        <emissions CO_abs="3046.160983" CO2_abs="1392992.686039" HC_abs="880.577531" PMx_abs="601.730208" NOx_abs="17127.792363" fuel_abs="555.364532" electricity_abs="0"/>
    </tripinfo>
    <tripinfo id="myflow.6" depart="22.00" departLane="1to2_0" departPos="5.10" departSpeed="0.00" departDelay="0.40" arrival="147.00" arrivalLane="2to3_1" arrivalPos="96.00" arrivalSpeed="14.51" duration="125.00" routeLength="1094.90" waitingTime="36.00" waitingCount="1" stopTime="0.00" timeLoss="52.72" rerouteNo="0" devices="tripinfo_myflow.6 routing_myflow.6 emissions_myflow.6 fcd_myflow.6" vType="normal" speedFactor="1.09" vaporized="">
        <emissions CO_abs="3134.513161" CO2_abs="1591446.720969" HC_abs="840.432301" PMx_abs="642.220538" NOx_abs="19637.994846" fuel_abs="634.485042" electricity_abs="0"/>
    </tripinfo>
    <tripinfo id="myflow.1" depart="4.00" departLane="1to2_1" departPos="5.10" departSpeed="0.00" departDelay="0.40" arrival="149.00" arrivalLane="2to3_0" arrivalPos="96.00" arrivalSpeed="10.92" duration="145.00" routeLength="1094.90" waitingTime="38.00" waitingCount="1" stopTime="0.00" timeLoss="50.75" rerouteNo="0" devices="tripinfo_myflow.1 routing_myflow.1 emissions_myflow.1 fcd_myflow.1" vType="normal" speedFactor="0.84" vaporized="">
        <emissions CO_abs="3063.474713" CO2_abs="1336215.433942" HC_abs="913.111777" PMx_abs="596.949716" NOx_abs="16411.946237" fuel_abs="532.728266" electricity_abs="0"/>
    </tripinfo>
    <tripinfo id="myflow.8" depart="29.00" departLane="1to2_1" departPos="5.10" departSpeed="0.00" departDelay="0.20" arrival="150.00" arrivalLane="2to3_1" arrivalPos="96.00" arrivalSpeed="14.59" duration="121.00" routeLength="1094.90" waitingTime="35.00" waitingCount="1" stopTime="0.00" timeLoss="49.87" rerouteNo="0" devices="tripinfo_myflow.8 routing_myflow.8 emissions_myflow.8 fcd_myflow.8" vType="normal" speedFactor="1.12" vaporized="">
        <emissions CO_abs="2962.581343" CO2_abs="1482037.454117" HC_abs="800.967463" PMx_abs="603.325421" NOx_abs="18299.687310" fuel_abs="590.865299" electricity_abs="0"/>
    </tripinfo>
    <tripinfo id="myflow.2" depart="8.00" departLane="1to2_0" departPos="5.10" departSpeed="0.00" departDelay="0.80" arrival="151.00" arrivalLane="2to3_0" arrivalPos="96.00" arrivalSpeed="10.42" duration="143.00" routeLength="1094.90" waitingTime="33.00" waitingCount="1" stopTime="0.00" timeLoss="47.87" rerouteNo="0" devices="tripinfo_myflow.2 routing_myflow.2 emissions_myflow.2 fcd_myflow.2" vType="normal" speedFactor="0.83" vaporized="">
        <emissions CO_abs="2905.179980" CO2_abs="1310032.467469" HC_abs="829.705248" PMx_abs="568.403558" NOx_abs="16234.653939" fuel_abs="522.289514" electricity_abs="0"/>
    </tripinfo>
    <tripinfo id="myflow.4" depart="15.00" departLane="1to2_1" departPos="5.10" departSpeed="0.00" departDelay="0.60" arrival="153.00" arrivalLane="2to3_1" arrivalPos="96.00" arrivalSpeed="11.64" duration="138.00" routeLength="1094.90" waitingTime="34.00" waitingCount="1" stopTime="0.00" timeLoss="48.52" rerouteNo="0" devices="tripinfo_myflow.4 routing_myflow.4 emissions_myflow.4 fcd_myflow.4" vType="normal" speedFactor="0.89" vaporized="">
        <emissions CO_abs="3165.921885" CO2_abs="1461373.812760" HC_abs="896.695942" PMx_abs="623.439946" NOx_abs="18074.677228" fuel_abs="582.626970" electricity_abs="0"/>
    </tripinfo>
    <tripinfo id="myflow.7" depart="26.00" departLane="1to2_1" departPos="5.10" departSpeed="0.00" departDelay="0.80" arrival="153.00" arrivalLane="2to3_0" arrivalPos="96.00" arrivalSpeed="12.14" duration="127.00" routeLength="1094.90" waitingTime="27.00" waitingCount="1" stopTime="0.00" timeLoss="40.91" rerouteNo="0" devices="tripinfo_myflow.7 routing_myflow.7 emissions_myflow.7 fcd_myflow.7" vType="normal" speedFactor="0.92" vaporized="">
        <emissions CO_abs="2970.733340" CO2_abs="1417921.888987" HC_abs="808.578702" PMx_abs="587.106315" NOx_abs="17644.559426" fuel_abs="565.303376" electricity_abs="0"/>
    </tripinfo>
    <tripinfo id="myflow.11" depart="40.00" departLane="1to2_1" departPos="5.10" departSpeed="0.00" departDelay="0.40" arrival="154.00" arrivalLane="2to3_0" arrivalPos="96.00" arrivalSpeed="13.91" duration="114.00" routeLength="1094.90" waitingTime="22.00" waitingCount="1" stopTime="0.00" timeLoss="38.31" rerouteNo="0" devices="tripinfo_myflow.11 routing_myflow.11 emissions_myflow.11 fcd_myflow.11" vType="normal" speedFactor="1.04" vaporized="">
        <emissions CO_abs="2885.641073" CO2_abs="1453438.215662" HC_abs="752.790450" PMx_abs="579.266860" NOx_abs="18114.326769" fuel_abs="579.463217" electricity_abs="0"/>
    </tripinfo>
    <tripinfo id="myflow.10" depart="36.00" departLane="1to2_1" departPos="5.10" departSpeed="0.00" departDelay="0.00" arrival="155.00" arrivalLane="2to3_1" arrivalPos="96.00" arrivalSpeed="11.92" duration="119.00" routeLength="1094.90" waitingTime="18.00" waitingCount="1" stopTime="0.00" timeLoss="33.22" rerouteNo="0" devices="tripinfo_myflow.10 routing_myflow.10 emissions_myflow.10 fcd_myflow.10" vType="normal" speedFactor="0.93" vaporized="">
        <emissions CO_abs="2873.399841" CO2_abs="1421952.111676" HC_abs="764.411287" PMx_abs="571.505071" NOx_abs="17699.626901" fuel_abs="566.910172" electricity_abs="0"/>
    </tripinfo>
    <tripinfo id="myflow.9" depart="33.00" departLane="1to2_1" departPos="5.10" departSpeed="0.00" departDelay="0.60" arrival="156.00" arrivalLane="2to3_0" arrivalPos="96.00" arrivalSpeed="11.54" duration="123.00" routeLength="1094.90" waitingTime="20.00" waitingCount="1" stopTime="0.00" timeLoss="35.44" rerouteNo="0" devices="tripinfo_myflow.9 routing_myflow.9 emissions_myflow.9 fcd_myflow.9" vType="normal" speedFactor="0.90" vaporized="">
        <emissions CO_abs="2857.432214" CO2_abs="1383670.045114" HC_abs="773.912851" PMx_abs="565.764256" NOx_abs="17204.708062" fuel_abs="551.647699" electricity_abs="0"/>
    </tripinfo>
    <tripinfo id="myflow.13" depart="47.00" departLane="1to2_1" departPos="5.10" departSpeed="0.00" departDelay="0.20" arrival="156.00" arrivalLane="2to3_1" arrivalPos="96.00" arrivalSpeed="14.02" duration="109.00" routeLength="1094.90" waitingTime="17.00" waitingCount="1" stopTime="0.00" timeLoss="36.06" rerouteNo="0" devices="tripinfo_myflow.13 routing_myflow.13 emissions_myflow.13 fcd_myflow.13" vType="normal" speedFactor="1.08" vaporized="">
        <emissions CO_abs="2884.845750" CO2_abs="1561073.411117" HC_abs="725.665708" PMx_abs="595.234581" NOx_abs="19375.367499" fuel_abs="622.375696" electricity_abs="0"/>
    </tripinfo>
    <tripinfo id="myflow.12" depart="44.00" departLane="1to2_1" departPos="5.10" departSpeed="0.00" departDelay="0.80" arrival="158.00" arrivalLane="2to3_0" arrivalPos="96.00" arrivalSpeed="12.36" duration="114.00" routeLength="1094.90" waitingTime="15.00" waitingCount="1" stopTime="0.00" timeLoss="29.52" rerouteNo="0" devices="tripinfo_myflow.12 routing_myflow.12 emissions_myflow.12 fcd_myflow.12" vType="normal" speedFactor="0.94" vaporized="">
        <emissions CO_abs="2798.089938" CO2_abs="1456905.147626" HC_abs="712.214280" PMx_abs="566.027420" NOx_abs="18168.258167" fuel_abs="580.845394" electricity_abs="0"/>
    </tripinfo>
    <tripinfo id="myflow.15" depart="54.00" departLane="1to2_1" departPos="5.10" departSpeed="0.00" departDelay="0.00" arrival="158.00" arrivalLane="2to3_1" arrivalPos="96.00" arrivalSpeed="13.49" duration="104.00" routeLength="1094.90" waitingTime="12.00" waitingCount="1" stopTime="0.00" timeLoss="26.98" rerouteNo="0" devices="tripinfo_myflow.15 routing_myflow.15 emissions_myflow.15 fcd_myflow.15" vType="normal" speedFactor="1.03" vaporized="">
        <emissions CO_abs="2644.893787" CO2_abs="1369168.443758" HC_abs="670.656778" PMx_abs="531.034801" NOx_abs="17112.075373" fuel_abs="545.866182" electricity_abs="0"/>
    </tripinfo>
    <tripinfo id="myflow.14" depart="51.00" departLane="1to2_0" departPos="5.10" departSpeed="0.00" departDelay="0.60" arrival="160.00" arrivalLane="2to3_0" arrivalPos="96.00" arrivalSpeed="13.26" duration="109.00" routeLength="1094.90" waitingTime="14.00" waitingCount="1" stopTime="0.00" timeLoss="30.46" rerouteNo="0" devices="tripinfo_myflow.14 routing_myflow.14 emissions_myflow.14 fcd_myflow.14" vType="normal" speedFactor="1.01" vaporized="">
        <emissions CO_abs="2662.812689" CO2_abs="1390012.045668" HC_abs="671.538877" PMx_abs="537.673924" NOx_abs="17365.725273" fuel_abs="554.176177" electricity_abs="0"/>
    </tripinfo>
    <tripinfo id="myflow.17" depart="62.00" departLane="1to2_1" departPos="5.10" departSpeed="0.00" departDelay="0.80" arrival="160.00" arrivalLane="2to3_1" arrivalPos="96.00" arrivalSpeed="12.93" duration="98.00" routeLength="1094.90" waitingTime="3.00" waitingCount="1" stopTime="0.00" timeLoss="19.18" rerouteNo="0" devices="tripinfo_myflow.17 routing_myflow.17 emissions_myflow.17 fcd_myflow.17" vType="normal" speedFactor="1.01" vaporized="">
        <emissions CO_abs="2420.478185" CO2_abs="1358878.479331" HC_abs="570.859354" PMx_abs="499.931712" NOx_abs="17007.287333" fuel_abs="541.763700" electricity_abs="0"/>
    </tripinfo>
    <tripinfo id="myflow.20" depart="72.00" departLane="1to2_1" departPos="5.10" departSpeed="0.00" departDelay="0.00" arrival="161.00" arrivalLane="2to3_1" arrivalPos="96.00" arrivalSpeed="15.49" duration="89.00" routeLength="1094.90" waitingTime="1.00" waitingCount="1" stopTime="0.00" timeLoss="19.25" rerouteNo="0" devices="tripinfo_myflow.20 routing_myflow.20 emissions_myflow.20 fcd_myflow.20" vType="normal" speedFactor="1.13" vaporized="">
        <emissions CO_abs="2993.354044" CO2_abs="1758885.456744" HC_abs="675.510255" PMx_abs="629.585704" NOx_abs="22016.179915" fuel_abs="701.240278" electricity_abs="0"/>
    </tripinfo>
    <tripinfo id="myflow.16" depart="58.00" departLane="1to2_1" departPos="5.10" departSpeed="0.00" departDelay="0.40" arrival="162.00" arrivalLane="2to3_0" arrivalPos="96.00" arrivalSpeed="12.29" duration="104.00" routeLength="1094.90" waitingTime="0.00" waitingCount="0" stopTime="0.00" timeLoss="14.86" rerouteNo="0" devices="tripinfo_myflow.16 routing_myflow.16 emissions_myflow.16 fcd_myflow.16" vType="normal" speedFactor="0.89" vaporized="">
        <emissions CO_abs="2568.136009" CO2_abs="1325871.323417" HC_abs="642.709547" PMx_abs="510.221504" NOx_abs="16651.964879" fuel_abs="528.604254" electricity_abs="0"/>
    </tripinfo>
    <tripinfo id="myflow.19" depart="69.00" departLane="1to2_1" departPos="5.10" departSpeed="0.00" departDelay="0.60" arrival="163.00" arrivalLane="2to3_1" arrivalPos="96.00" arrivalSpeed="13.78" duration="94.00" routeLength="1094.90" waitingTime="0.00" waitingCount="0" stopTime="0.00" timeLoss="17.36" rerouteNo="0" devices="tripinfo_myflow.19 routing_myflow.19 emissions_myflow.19 fcd_myflow.19" vType="normal" speedFactor="1.03" vaporized="">
        <emissions CO_abs="2693.629661" CO2_abs="1520966.247712" HC_abs="624.295522" PMx_abs="555.346630" NOx_abs="19086.401302" fuel_abs="606.385581" electricity_abs="0"/>
    </tripinfo>
    <tripinfo id="myflow.18" depart="65.00" departLane="1to2_1" departPos="5.10" departSpeed="0.00" departDelay="0.20" arrival="164.00" arrivalLane="2to3_0" arrivalPos="96.00" arrivalSpeed="10.99" duration="99.00" routeLength="1094.90" waitingTime="0.00" waitingCount="0" stopTime="0.00" timeLoss="8.29" rerouteNo="0" devices="tripinfo_myflow.18 routing_myflow.18 emissions_myflow.18 fcd_myflow.18" vType="normal" speedFactor="0.87" vaporized="">
        <emissions CO_abs="2285.780663" CO2_abs="1142216.311164" HC_abs="576.652428" PMx_abs="445.315017" NOx_abs="14412.756828" fuel_abs="455.383870" electricity_abs="0"/>
    </tripinfo>
    <tripinfo id="myflow.23" depart="83.00" departLane="1to2_1" departPos="5.10" departSpeed="0.00" departDelay="0.20" arrival="165.00" arrivalLane="2to3_1" arrivalPos="96.00" arrivalSpeed="14.64" duration="82.00" routeLength="1094.90" waitingTime="0.00" waitingCount="0" stopTime="0.00" timeLoss="11.10" rerouteNo="0" devices="tripinfo_myflow.23 routing_myflow.23 emissions_myflow.23 fcd_myflow.23" vType="normal" speedFactor="1.12" vaporized="">
        <emissions CO_abs="2570.400501" CO2_abs="1494422.042094" HC_abs="587.714800" PMx_abs="535.796751" NOx_abs="18700.052616" fuel_abs="595.802864" electricity_abs="0"/>
    </tripinfo>
    <tripinfo id="myflow.22" depart="80.00" departLane="1to2_1" departPos="5.10" departSpeed="0.00" departDelay="0.80" arrival="166.00" arrivalLane="2to3_0" arrivalPos="96.00" arrivalSpeed="14.48" duration="86.00" routeLength="1094.90" waitingTime="0.00" waitingCount="0" stopTime="0.00" timeLoss="16.98" rerouteNo="0" devices="tripinfo_myflow.22 routing_myflow.22 emissions_myflow.22 fcd_myflow.22" vType="normal" speedFactor="1.15" vaporized="">
        <emissions CO_abs="2796.793734" CO2_abs="1593674.216537" HC_abs="659.703421" PMx_abs="579.390698" NOx_abs="19897.742677" fuel_abs="635.373186" electricity_abs="0"/>
    </tripinfo>
    <tripinfo id="myflow.21" depart="76.00" departLane="1to2_1" departPos="5.10" departSpeed="0.00" departDelay="0.40" arrival="172.00" arrivalLane="2to3_0" arrivalPos="96.00" arrivalSpeed="11.18" duration="96.00" routeLength="1094.90" waitingTime="0.00" waitingCount="0" stopTime="0.00" timeLoss="7.19" rerouteNo="0" devices="tripinfo_myflow.21 routing_myflow.21 emissions_myflow.21 fcd_myflow.21" vType="normal" speedFactor="0.89" vaporized="">
        <emissions CO_abs="2181.737018" CO2_abs="1111974.749135" HC_abs="542.464145" PMx_abs="428.308774" NOx_abs="14022.312287" fuel_abs="443.327037" electricity_abs="0"/>
    </tripinfo>
    <tripinfo id="myflow.24" depart="87.00" departLane="1to2_1" departPos="5.10" departSpeed="0.00" departDelay="0.60" arrival="174.00" arrivalLane="2to3_0" arrivalPos="96.00" arrivalSpeed="12.99" duration="87.00" routeLength="1094.90" waitingTime="0.00" waitingCount="0" stopTime="0.00" timeLoss="6.90" rerouteNo="0" devices="tripinfo_myflow.24 routing_myflow.24 emissions_myflow.24 fcd_myflow.24" vType="normal" speedFactor="0.99" vaporized="">
        <emissions CO_abs="2079.099631" CO2_abs="1118822.956657" HC_abs="488.635790" PMx_abs="416.214510" NOx_abs="14132.775315" fuel_abs="446.057331" electricity_abs="0"/>
    </tripinfo>
    <tripinfo id="myflow.25" depart="90.00" departLane="1to2_0" departPos="5.10" departSpeed="0.00" departDelay="0.00" arrival="179.00" arrivalLane="2to3_0" arrivalPos="96.00" arrivalSpeed="12.96" duration="89.00" routeLength="1094.90" waitingTime="0.00" waitingCount="0" stopTime="0.00" timeLoss="7.34" rerouteNo="0" devices="tripinfo_myflow.25 routing_myflow.25 emissions_myflow.25 fcd_myflow.25" vType="normal" speedFactor="0.97" vaporized="">
        <emissions CO_abs="2410.699789" CO2_abs="1250107.128704" HC_abs="587.846601" PMx_abs="475.559626" NOx_abs="15777.738024" fuel_abs="498.398297" electricity_abs="0"/>
    </tripinfo>
    <tripinfo id="myflow.26" depart="94.00" departLane="1to2_1" departPos="5.10" departSpeed="0.00" departDelay="0.40" arrival="179.00" arrivalLane="2to3_1" arrivalPos="96.00" arrivalSpeed="13.72" duration="85.00" routeLength="1094.90" waitingTime="0.00" waitingCount="0" stopTime="0.00" timeLoss="7.32" rerouteNo="0" devices="tripinfo_myflow.26 routing_myflow.26 emissions_myflow.26 fcd_myflow.26" vType="normal" speedFactor="1.02" vaporized="">
        <emissions CO_abs="2166.188130" CO2_abs="1106673.780286" HC_abs="540.739949" PMx_abs="424.806423" NOx_abs="13930.843383" fuel_abs="441.213680" electricity_abs="0"/>
    </tripinfo>
    <tripinfo id="myflow.28" depart="101.00" departLane="1to2_1" departPos="5.10" departSpeed="0.00" departDelay="0.20" arrival="181.00" arrivalLane="2to3_1" arrivalPos="96.00" arrivalSpeed="15.09" duration="80.00" routeLength="1094.90" waitingTime="0.00" waitingCount="0" stopTime="0.00" timeLoss="7.82" rerouteNo="0" devices="tripinfo_myflow.28 routing_myflow.28 emissions_myflow.28 fcd_myflow.28" vType="normal" speedFactor="1.10" vaporized="">
        <emissions CO_abs="2236.090170" CO2_abs="1225040.707641" HC_abs="523.836278" PMx_abs="451.138664" NOx_abs="15432.854761" fuel_abs="488.404744" electricity_abs="0"/>
    </tripinfo>
    <tripinfo id="myflow.27" depart="98.00" departLane="1to2_0" departPos="5.10" departSpeed="0.00" departDelay="0.80" arrival="236.00" arrivalLane="2to3_0" arrivalPos="96.00" arrivalSpeed="12.33" duration="138.00" routeLength="1094.90" waitingTime="41.00" waitingCount="1" stopTime="0.00" timeLoss="53.92" rerouteNo="0" devices="tripinfo_myflow.27 routing_myflow.27 emissions_myflow.27 fcd_myflow.27" vType="normal" speedFactor="0.94" vaporized="">
        <emissions CO_abs="3226.014078" CO2_abs="1468699.050181" HC_abs="923.604515" PMx_abs="635.921098" NOx_abs="18131.729593" fuel_abs="585.547444" electricity_abs="0"/>
    </tripinfo>
    <tripinfo id="myflow.31" depart="112.00" departLane="1to2_1" departPos="5.10" departSpeed="0.00" departDelay="0.40" arrival="236.00" arrivalLane="2to3_1" arrivalPos="96.00" arrivalSpeed="14.64" duration="124.00" routeLength="1094.90" waitingTime="35.00" waitingCount="1" stopTime="0.00" timeLoss="49.06" rerouteNo="0" devices="tripinfo_myflow.31 routing_myflow.31 emissions_myflow.31 fcd_myflow.31" vType="normal" speedFactor="1.07" vaporized="">
        <emissions CO_abs="3177.095734" CO2_abs="1514533.274734" HC_abs="878.891971" PMx_abs="631.778342" NOx_abs="18745.877878" fuel_abs="603.820896" electricity_abs="0"/>
    </tripinfo>
    <tripinfo id="myflow.32" depart="116.00" departLane="1to2_1" departPos="5.10" departSpeed="0.00" departDelay="0.80" arrival="237.00" arrivalLane="2to3_1" arrivalPos="96.00" arrivalSpeed="13.39" duration="121.00" routeLength="1094.90" waitingTime="31.00" waitingCount="1" stopTime="0.00" timeLoss="45.00" rerouteNo="0" devices="tripinfo_myflow.32 routing_myflow.32 emissions_myflow.32 fcd_myflow.32" vType="normal" speedFactor="1.04" vaporized="">
        <emissions CO_abs="2874.157394" CO2_abs="1396837.080601" HC_abs="789.684666" PMx_abs="576.811076" NOx_abs="17261.694388" fuel_abs="556.897225" electricity_abs="0"/>
    </tripinfo>
    <tripinfo id="myflow.30" depart="108.00" departLane="1to2_1" departPos="5.10" departSpeed="0.00" departDelay="0.00" arrival="238.00" arrivalLane="2to3_0" arrivalPos="96.00" arrivalSpeed="13.76" duration="130.00" routeLength="1094.90" waitingTime="40.00" waitingCount="1" stopTime="0.00" timeLoss="52.90" rerouteNo="0" devices="tripinfo_myflow.30 routing_myflow.30 emissions_myflow.30 fcd_myflow.30" vType="normal" speedFactor="1.03" vaporized="">
        <emissions CO_abs="3004.039277" CO2_abs="1353669.013847" HC_abs="874.209994" PMx_abs="590.599854" NOx_abs="16651.367056" fuel_abs="539.686801" electricity_abs="0"/>
    </tripinfo>
    <tripinfo id="myflow.35" depart="126.00" departLane="1to2_1" departPos="5.10" departSpeed="0.00" departDelay="0.00" arrival="240.00" arrivalLane="2to3_1" arrivalPos="96.00" arrivalSpeed="13.36" duration="114.00" routeLength="1094.90" waitingTime="20.00" waitingCount="1" stopTime="0.00" timeLoss="35.87" rerouteNo="0" devices="tripinfo_myflow.35 routing_myflow.35 emissions_myflow.35 fcd_myflow.35" vType="normal" speedFactor="1.02" vaporized="">
        <emissions CO_abs="2936.146967" CO2_abs="1454136.899939" HC_abs="779.233774" PMx_abs="585.413322" NOx_abs="18098.466215" fuel_abs="579.741777" electricity_abs="0"/>
    </tripinfo>
    <tripinfo id="myflow.29" depart="105.00" departLane="1to2_1" departPos="5.10" departSpeed="0.00" departDelay="0.60" arrival="241.00" arrivalLane="2to3_0" arrivalPos="96.00" arrivalSpeed="10.90" duration="136.00" routeLength="1094.90" waitingTime="28.00" waitingCount="1" stopTime="0.00" timeLoss="41.11" rerouteNo="0" devices="tripinfo_myflow.29 routing_myflow.29 emissions_myflow.29 fcd_myflow.29" vType="normal" speedFactor="0.83" vaporized="">
        <emissions CO_abs="3022.522725" CO2_abs="1352259.543195" HC_abs="872.695487" PMx_abs="585.742450" NOx_abs="16735.584624" fuel_abs="539.124810" electricity_abs="0"/>
    </tripinfo>
    <tripinfo id="myflow.37" depart="134.00" departLane="1to2_1" departPos="5.10" departSpeed="0.00" departDelay="0.80" arrival="241.00" arrivalLane="2to3_1" arrivalPos="96.00" arrivalSpeed="14.61" duration="107.00" routeLength="1094.90" waitingTime="18.00" waitingCount="1" stopTime="0.00" timeLoss="32.56" rerouteNo="0" devices="tripinfo_myflow.37 routing_myflow.37 emissions_myflow.37 fcd_myflow.37" vType="normal" speedFactor="1.06" vaporized="">
        <emissions CO_abs="2753.842810" CO2_abs="1474434.442221" HC_abs="686.485156" PMx_abs="563.277016" NOx_abs="18377.774964" fuel_abs="587.834094" electricity_abs="0"/>
    </tripinfo>
    <tripinfo id="myflow.34" depart="123.00" departLane="1to2_1" departPos="5.10" departSpeed="0.00" departDelay="0.60" arrival="243.00" arrivalLane="2to3_0" arrivalPos="96.00" arrivalSpeed="11.62" duration="120.00" routeLength="1094.90" waitingTime="19.00" waitingCount="1" stopTime="0.00" timeLoss="31.75" rerouteNo="0" devices="tripinfo_myflow.34 routing_myflow.34 emissions_myflow.34 fcd_myflow.34" vType="normal" speedFactor="0.90" vaporized="">
        <emissions CO_abs="2806.587971" CO2_abs="1388607.682718" HC_abs="752.669620" PMx_abs="560.088397" NOx_abs="17243.879754" fuel_abs="553.616257" electricity_abs="0"/>
    </tripinfo>
    <tripinfo id="myflow.38" depart="137.00" departLane="1to2_1" departPos="5.10" departSpeed="0.00" departDelay="0.20" arrival="243.00" arrivalLane="2to3_1" arrivalPos="96.00" arrivalSpeed="16.23" duration="106.00" routeLength="1094.90" waitingTime="18.00" waitingCount="1" stopTime="0.00" timeLoss="37.80" rerouteNo="0" devices="tripinfo_myflow.38 routing_myflow.38 emissions_myflow.38 fcd_myflow.38" vType="normal" speedFactor="1.17" vaporized="">
        <emissions CO_abs="2805.542888" CO2_abs="1571737.601085" HC_abs="674.000687" PMx_abs="585.761415" NOx_abs="19586.159530" fuel_abs="626.627337" electricity_abs="0"/>
    </tripinfo>
    <tripinfo id="myflow.33" depart="119.00" departLane="1to2_1" departPos="5.10" departSpeed="0.00" departDelay="0.20" arrival="245.00" arrivalLane="2to3_0" arrivalPos="96.00" arrivalSpeed="9.73" duration="126.00" routeLength="1094.90" waitingTime="10.00" waitingCount="1" stopTime="0.00" timeLoss="23.55" rerouteNo="0" devices="tripinfo_myflow.33 routing_myflow.33 emissions_myflow.33 fcd_myflow.33" vType="normal" speedFactor="0.77" vaporized="">
        <emissions CO_abs="2450.590061" CO2_abs="1192653.641419" HC_abs="648.666823" PMx_abs="481.104375" NOx_abs="14943.823464" fuel_abs="475.492398" electricity_abs="0"/>
    </tripinfo>
    <tripinfo id="myflow.36" depart="130.00" departLane="1to2_1" departPos="5.10" departSpeed="0.00" departDelay="0.40" arrival="246.00" arrivalLane="2to3_1" arrivalPos="96.00" arrivalSpeed="12.14" duration="116.00" routeLength="1094.90" waitingTime="12.00" waitingCount="1" stopTime="0.00" timeLoss="25.63" rerouteNo="0" devices="tripinfo_myflow.36 routing_myflow.36 emissions_myflow.36 fcd_myflow.36" vType="normal" speedFactor="0.88" vaporized="">
        <emissions CO_abs="2646.180170" CO2_abs="1359197.732342" HC_abs="682.066320" PMx_abs="531.203720" NOx_abs="16949.566495" fuel_abs="541.890960" electricity_abs="0"/>
    </tripinfo>
    <tripinfo id="myflow.39" depart="141.00" departLane="1to2_1" departPos="5.10" departSpeed="0.00" departDelay="0.60" arrival="247.00" arrivalLane="2to3_0" arrivalPos="96.00" arrivalSpeed="14.17" duration="106.00" routeLength="1094.90" waitingTime="9.00" waitingCount="1" stopTime="0.00" timeLoss="30.07" rerouteNo="0" devices="tripinfo_myflow.39 routing_myflow.39 emissions_myflow.39 fcd_myflow.39" vType="normal" speedFactor="1.05" vaporized="">
        <emissions CO_abs="2568.482499" CO2_abs="1421589.496908" HC_abs="620.287527" PMx_abs="528.675017" NOx_abs="17752.932462" fuel_abs="566.765606" electricity_abs="0"/>
    </tripinfo>
    <tripinfo id="myflow.41" depart="148.00" departLane="1to2_1" departPos="5.10" departSpeed="0.00" departDelay="0.40" arrival="248.00" arrivalLane="2to3_1" arrivalPos="96.00" arrivalSpeed="14.76" duration="100.00" routeLength="1094.90" waitingTime="12.00" waitingCount="1" stopTime="0.00" timeLoss="27.70" rerouteNo="0" devices="tripinfo_myflow.41 routing_myflow.41 emissions_myflow.41 fcd_myflow.41" vType="normal" speedFactor="1.10" vaporized="">
        <emissions CO_abs="2559.930656" CO2_abs="1425783.043703" HC_abs="617.648200" PMx_abs="528.666605" NOx_abs="17782.011571" fuel_abs="568.437552" electricity_abs="0"/>
    </tripinfo>
    <tripinfo id="myflow.40" depart="144.00" departLane="1to2_0" departPos="5.10" departSpeed="0.00" departDelay="0.00" arrival="249.00" arrivalLane="2to3_0" arrivalPos="96.00" arrivalSpeed="13.07" duration="105.00" routeLength="1094.90" waitingTime="5.00" waitingCount="1" stopTime="0.00" timeLoss="25.69" rerouteNo="0" devices="tripinfo_myflow.40 routing_myflow.40 emissions_myflow.40 fcd_myflow.40" vType="normal" speedFactor="1.00" vaporized="">
        <emissions CO_abs="2599.314677" CO2_abs="1408658.675256" HC_abs="635.271523" PMx_abs="528.965693" NOx_abs="17615.711176" fuel_abs="561.610303" electricity_abs="0"/>
    </tripinfo>
    <tripinfo id="myflow.43" depart="155.00" departLane="1to2_1" departPos="5.10" departSpeed="0.00" departDelay="0.20" arrival="249.00" arrivalLane="2to3_1" arrivalPos="96.00" arrivalSpeed="12.71" duration="94.00" routeLength="1094.90" waitingTime="0.00" waitingCount="0" stopTime="0.00" timeLoss="12.01" rerouteNo="0" devices="tripinfo_myflow.43 routing_myflow.43 emissions_myflow.43 fcd_myflow.43" vType="normal" speedFactor="0.96" vaporized="">
        <emissions CO_abs="2518.052173" CO2_abs="1368122.309455" HC_abs="616.610406" PMx_abs="511.719040" NOx_abs="17092.570737" fuel_abs="545.449084" electricity_abs="0"/>
    </tripinfo>
    <tripinfo id="myflow.42" depart="152.00" departLane="1to2_1" departPos="5.10" departSpeed="0.00" departDelay="0.80" arrival="251.00" arrivalLane="2to3_0" arrivalPos="96.00" arrivalSpeed="12.40" duration="99.00" routeLength="1094.90" waitingTime="0.00" waitingCount="0" stopTime="0.00" timeLoss="10.39" rerouteNo="0" devices="tripinfo_myflow.42 routing_myflow.42 emissions_myflow.42 fcd_myflow.42" vType="normal" speedFactor="0.90" vaporized="">
        <emissions CO_abs="2291.385262" CO2_abs="1212673.028200" HC_abs="565.251731" PMx_abs="459.607266" NOx_abs="15208.552519" fuel_abs="483.473854" electricity_abs="0"/>
    </tripinfo>
    <tripinfo id="myflow.44" depart="159.00" departLane="1to2_1" departPos="5.10" departSpeed="0.00" departDelay="0.60" arrival="251.00" arrivalLane="2to3_1" arrivalPos="96.00" arrivalSpeed="13.74" duration="92.00" routeLength="1094.90" waitingTime="0.00" waitingCount="0" stopTime="0.00" timeLoss="14.52" rerouteNo="0" devices="tripinfo_myflow.44 routing_myflow.44 emissions_myflow.44 fcd_myflow.44" vType="normal" speedFactor="1.02" vaporized="">