<?xml version="1.0" encoding="UTF-8"?>

<!-- generated on 2022-01-20 11:05:44 by Eclipse SUMO sumo Version 1.11.0
<configuration xmlns:xsi="http://www.w3.org/2001/XMLSchema-instance" xsi:noNamespaceSchemaLocation="http://sumo.dlr.de/xsd/sumoConfiguration.xsd">

    <input>
        <net-file value="/Users/hugues/sumo/ITSProjects/Project07-GLOSA/simulation_sumo/traffic_light_net.net.xml"/>
        <route-files value="/Users/hugues/sumo/ITSProjects/Project07-GLOSA/simulation_sumo/traffic_light_rou_sans_glosa.rou.xml"/>
    </input>

    <output>
        <emission-output value="/Users/hugues/sumo/ITSProjects/Project07-GLOSA/simulation_sumo/emission_test_100"/>
        <fcd-output value="/Users/hugues/sumo/ITSProjects/Project07-GLOSA/simulation_sumo/FCD_test_100"/>
        <queue-output value="/Users/hugues/sumo/ITSProjects/Project07-GLOSA/simulation_sumo/queue_100"/>
        <summary-output value="/Users/hugues/sumo/ITSProjects/Project07-GLOSA/simulation_sumo/summary_100"/>
        <tripinfo-output value="/Users/hugues/sumo/ITSProjects/Project07-GLOSA/simulation_sumo/trip_info_test_100"/>
    </output>

    <time>
        <begin value="0"/>
        <end value="3600"/>
    </time>

</configuration>
-->

<tripinfos xmlns:xsi="http://www.w3.org/2001/XMLSchema-instance" xsi:noNamespaceSchemaLocation="http://sumo.dlr.de/xsd/tripinfo_file.xsd">
    <tripinfo id="myflow.0" depart="0.00" departLane="1to2_0" departPos="5.10" departSpeed="0.00" departDelay="0.00" arrival="91.00" arrivalLane="2to3_0" arrivalPos="96.00" arrivalSpeed="12.64" duration="91.00" routeLength="1094.90" waitingTime="0.00" waitingCount="0" stopTime="0.00" timeLoss="6.28" rerouteNo="0" devices="tripinfo_myflow.0 routing_myflow.0 emissions_myflow.0 fcd_myflow.0 glosa_myflow.0" vType="CAV" speedFactor="0.94" vaporized="">
        <emissions CO_abs="2369.793667" CO2_abs="1221971.281111" HC_abs="585.295175" PMx_abs="467.024005" NOx_abs="15393.296476" fuel_abs="487.180966" electricity_abs="0"/>
    </tripinfo>
    <tripinfo id="myflow.1" depart="4.00" departLane="1to2_1" departPos="5.10" departSpeed="0.00" departDelay="0.40" arrival="93.00" arrivalLane="2to3_1" arrivalPos="96.00" arrivalSpeed="10.94" duration="89.00" routeLength="1094.90" waitingTime="0.00" waitingCount="0" stopTime="0.00" timeLoss="6.27" rerouteNo="0" devices="tripinfo_myflow.1 routing_myflow.1 emissions_myflow.1 fcd_myflow.1 glosa_myflow.1" vType="CAV" speedFactor="0.84" vaporized="">
        <emissions CO_abs="2295.079516" CO2_abs="1238130.660201" HC_abs="557.575873" PMx_abs="462.657723" NOx_abs="15522.724082" fuel_abs="493.623462" electricity_abs="0"/>
    </tripinfo>
    <tripinfo id="myflow.3" depart="11.00" departLane="1to2_1" departPos="5.10" departSpeed="0.00" departDelay="0.20" arrival="94.00" arrivalLane="2to3_0" arrivalPos="96.00" arrivalSpeed="13.29" duration="83.00" routeLength="1094.90" waitingTime="0.00" waitingCount="0" stopTime="0.00" timeLoss="6.09" rerouteNo="0" devices="tripinfo_myflow.3 routing_myflow.3 emissions_myflow.3 fcd_myflow.3 glosa_myflow.3" vType="CAV" speedFactor="1.00" vaporized="">
        <emissions CO_abs="2227.900299" CO2_abs="1165307.631966" HC_abs="539.074403" PMx_abs="440.011425" NOx_abs="14709.027463" fuel_abs="464.590089" electricity_abs="0"/>
    </tripinfo>
    <tripinfo id="myflow.6" depart="22.00" departLane="1to2_0" departPos="5.10" departSpeed="0.00" departDelay="0.40" arrival="145.00" arrivalLane="2to3_1" arrivalPos="96.00" arrivalSpeed="14.09" duration="123.00" routeLength="1094.90" waitingTime="38.00" waitingCount="1" stopTime="0.00" timeLoss="50.28" rerouteNo="0" devices="tripinfo_myflow.6 routing_myflow.6 emissions_myflow.6 fcd_myflow.6 glosa_myflow.6" vType="CAV" speedFactor="1.09" vaporized="">
        <emissions CO_abs="3024.004344" CO2_abs="1504871.121542" HC_abs="832.297187" PMx_abs="617.236013" NOx_abs="18499.203496" fuel_abs="599.968720" electricity_abs="0"/>
    </tripinfo>
    <tripinfo id="myflow.2" depart="8.00" departLane="1to2_0" departPos="5.10" departSpeed="0.00" departDelay="0.80" arrival="147.00" arrivalLane="2to3_0" arrivalPos="96.00" arrivalSpeed="11.10" duration="139.00" routeLength="1094.90" waitingTime="44.00" waitingCount="1" stopTime="0.00" timeLoss="56.97" rerouteNo="0" devices="tripinfo_myflow.2 routing_myflow.2 emissions_myflow.2 fcd_myflow.2 glosa_myflow.2" vType="CAV" speedFactor="0.83" vaporized="">
        <emissions CO_abs="3128.411302" CO2_abs="1393302.469178" HC_abs="923.793891" PMx_abs="617.492023" NOx_abs="17089.258850" fuel_abs="555.488014" electricity_abs="0"/>
    </tripinfo>
    <tripinfo id="myflow.8" depart="29.00" departLane="1to2_1" departPos="5.10" departSpeed="0.00" departDelay="0.20" arrival="147.00" arrivalLane="2to3_1" arrivalPos="96.00" arrivalSpeed="14.85" duration="118.00" routeLength="1094.90" waitingTime="35.00" waitingCount="1" stopTime="0.00" timeLoss="47.67" rerouteNo="0" devices="tripinfo_myflow.8 routing_myflow.8 emissions_myflow.8 fcd_myflow.8 glosa_myflow.8" vType="CAV" speedFactor="1.12" vaporized="">
        <emissions CO_abs="2913.531553" CO2_abs="1434429.657812" HC_abs="791.995711" PMx_abs="589.747774" NOx_abs="17737.509703" fuel_abs="571.884811" electricity_abs="0"/>
    </tripinfo>
    <tripinfo id="myflow.5" depart="18.00" departLane="1to2_1" departPos="5.10" departSpeed="0.00" departDelay="0.00" arrival="149.00" arrivalLane="2to3_0" arrivalPos="96.00" arrivalSpeed="13.39" duration="131.00" routeLength="1094.90" waitingTime="38.00" waitingCount="1" stopTime="0.00" timeLoss="52.67" rerouteNo="0" devices="tripinfo_myflow.5 routing_myflow.5 emissions_myflow.5 fcd_myflow.5 glosa_myflow.5" vType="CAV" speedFactor="1.01" vaporized="">
        <emissions CO_abs="2975.934623" CO2_abs="1376091.338261" HC_abs="848.007358" PMx_abs="592.013712" NOx_abs="16960.511015" fuel_abs="548.626202" electricity_abs="0"/>
    </tripinfo>
    <tripinfo id="myflow.7" depart="26.00" departLane="1to2_1" departPos="5.10" departSpeed="0.00" departDelay="0.80" arrival="150.00" arrivalLane="2to3_1" arrivalPos="96.00" arrivalSpeed="11.55" duration="124.00" routeLength="1094.90" waitingTime="26.00" waitingCount="1" stopTime="0.00" timeLoss="38.39" rerouteNo="0" devices="tripinfo_myflow.7 routing_myflow.7 emissions_myflow.7 fcd_myflow.7 glosa_myflow.7" vType="CAV" speedFactor="0.92" vaporized="">
        <emissions CO_abs="2858.508372" CO2_abs="1382870.275995" HC_abs="772.443603" PMx_abs="567.470743" NOx_abs="17201.679752" fuel_abs="551.328842" electricity_abs="0"/>
    </tripinfo>
    <tripinfo id="myflow.4" depart="15.00" departLane="1to2_1" departPos="5.10" departSpeed="0.00" departDelay="0.60" arrival="151.00" arrivalLane="2to3_0" arrivalPos="96.00" arrivalSpeed="11.21" duration="136.00" routeLength="1094.90" waitingTime="33.00" waitingCount="1" stopTime="0.00" timeLoss="46.50" rerouteNo="0" devices="tripinfo_myflow.4 routing_myflow.4 emissions_myflow.4 fcd_myflow.4 glosa_myflow.4" vType="CAV" speedFactor="0.89" vaporized="">
        <emissions CO_abs="3162.810155" CO2_abs="1412999.814643" HC_abs="915.616298" PMx_abs="615.712373" NOx_abs="17458.146641" fuel_abs="563.341023" electricity_abs="0"/>
    </tripinfo>
    <tripinfo id="myflow.9" depart="33.00" departLane="1to2_1" departPos="5.10" departSpeed="0.00" departDelay="0.60" arrival="152.00" arrivalLane="2to3_1" arrivalPos="96.00" arrivalSpeed="11.44" duration="119.00" routeLength="1094.90" waitingTime="6.00" waitingCount="1" stopTime="0.00" timeLoss="31.36" rerouteNo="0" devices="tripinfo_myflow.9 routing_myflow.9 emissions_myflow.9 fcd_myflow.9 glosa_myflow.9" vType="CAV" speedFactor="0.90" vaporized="">
        <emissions CO_abs="1870.602348" CO2_abs="963627.687353" HC_abs="481.936199" PMx_abs="377.436074" NOx_abs="12011.802680" fuel_abs="384.183340" electricity_abs="0"/>
    </tripinfo>
    <tripinfo id="myflow.11" depart="40.00" departLane="1to2_1" departPos="5.10" departSpeed="0.00" departDelay="0.40" arrival="153.00" arrivalLane="2to3_0" arrivalPos="96.00" arrivalSpeed="13.29" duration="113.00" routeLength="1094.90" waitingTime="14.00" waitingCount="1" stopTime="0.00" timeLoss="36.50" rerouteNo="0" devices="tripinfo_myflow.11 routing_myflow.11 emissions_myflow.11 fcd_myflow.11 glosa_myflow.11" vType="CAV" speedFactor="1.04" vaporized="">
        <emissions CO_abs="2221.265320" CO2_abs="1132063.807137" HC_abs="580.061089" PMx_abs="449.824500" NOx_abs="14073.488853" fuel_abs="451.336223" electricity_abs="0"/>
    </tripinfo>
    <tripinfo id="myflow.10" depart="36.00" departLane="1to2_1" departPos="5.10" departSpeed="0.00" departDelay="0.00" arrival="154.00" arrivalLane="2to3_1" arrivalPos="96.00" arrivalSpeed="11.86" duration="118.00" routeLength="1094.90" waitingTime="6.00" waitingCount="1" stopTime="0.00" timeLoss="32.68" rerouteNo="0" devices="tripinfo_myflow.10 routing_myflow.10 emissions_myflow.10 fcd_myflow.10 glosa_myflow.10" vType="CAV" speedFactor="0.93" vaporized="">
        <emissions CO_abs="2095.743468" CO2_abs="1108338.897328" HC_abs="525.728146" PMx_abs="426.338064" NOx_abs="13835.243287" fuel_abs="441.877446" electricity_abs="0"/>
    </tripinfo>
    <tripinfo id="myflow.13" depart="47.00" departLane="1to2_1" departPos="5.10" departSpeed="0.00" departDelay="0.20" arrival="154.00" arrivalLane="2to3_0" arrivalPos="96.00" arrivalSpeed="14.45" duration="107.00" routeLength="1094.90" waitingTime="6.00" waitingCount="1" stopTime="0.00" timeLoss="33.92" rerouteNo="0" devices="tripinfo_myflow.13 routing_myflow.13 emissions_myflow.13 fcd_myflow.13 glosa_myflow.13" vType="CAV" speedFactor="1.08" vaporized="">
        <emissions CO_abs="2104.293378" CO2_abs="1129030.048050" HC_abs="525.008751" PMx_abs="430.335386" NOx_abs="14071.617292" fuel_abs="450.126726" electricity_abs="0"/>
    </tripinfo>
    <tripinfo id="myflow.12" depart="44.00" departLane="1to2_1" departPos="5.10" departSpeed="0.00" departDelay="0.80" arrival="156.00" arrivalLane="2to3_0" arrivalPos="96.00" arrivalSpeed="12.24" duration="112.00" routeLength="1094.90" waitingTime="4.00" waitingCount="1" stopTime="0.00" timeLoss="27.65" rerouteNo="0" devices="tripinfo_myflow.12 routing_myflow.12 emissions_myflow.12 fcd_myflow.12 glosa_myflow.12" vType="CAV" speedFactor="0.94" vaporized="">
        <emissions CO_abs="1767.824111" CO2_abs="952252.687620" HC_abs="444.452025" PMx_abs="361.546042" NOx_abs="11844.017850" fuel_abs="379.648314" electricity_abs="0"/>
    </tripinfo>
    <tripinfo id="myflow.14" depart="51.00" departLane="1to2_1" departPos="5.10" departSpeed="0.00" departDelay="0.60" arrival="156.00" arrivalLane="2to3_1" arrivalPos="96.00" arrivalSpeed="13.23" duration="105.00" routeLength="1094.90" waitingTime="5.00" waitingCount="1" stopTime="0.00" timeLoss="26.30" rerouteNo="0" devices="tripinfo_myflow.14 routing_myflow.14 emissions_myflow.14 fcd_myflow.14 glosa_myflow.14" vType="CAV" speedFactor="1.01" vaporized="">
        <emissions CO_abs="1844.139955" CO2_abs="1041172.057321" HC_abs="439.713274" PMx_abs="383.405491" NOx_abs="12987.681121" fuel_abs="415.099084" electricity_abs="0"/>
    </tripinfo>
    <tripinfo id="myflow.17" depart="62.00" departLane="1to2_1" departPos="5.10" departSpeed="0.00" departDelay="0.80" arrival="157.00" arrivalLane="2to3_1" arrivalPos="96.00" arrivalSpeed="13.12" duration="95.00" routeLength="1094.90" waitingTime="2.00" waitingCount="1" stopTime="0.00" timeLoss="16.81" rerouteNo="0" devices="tripinfo_myflow.17 routing_myflow.17 emissions_myflow.17 fcd_myflow.17 glosa_myflow.17" vType="CAV" speedFactor="1.01" vaporized="">
        <emissions CO_abs="2666.878103" CO2_abs="1436537.688018" HC_abs="661.030723" PMx_abs="540.589223" NOx_abs="17924.454007" fuel_abs="572.725253" electricity_abs="0"/>
    </tripinfo>
    <tripinfo id="myflow.15" depart="54.00" departLane="1to2_1" departPos="5.10" departSpeed="0.00" departDelay="0.00" arrival="158.00" arrivalLane="2to3_0" arrivalPos="96.00" arrivalSpeed="13.07" duration="104.00" routeLength="1094.90" waitingTime="3.00" waitingCount="1" stopTime="0.00" timeLoss="26.93" rerouteNo="0" devices="tripinfo_myflow.15 routing_myflow.15 emissions_myflow.15 fcd_myflow.15 glosa_myflow.15" vType="CAV" speedFactor="1.03" vaporized="">
        <emissions CO_abs="1722.428800" CO2_abs="956858.895692" HC_abs="420.829546" PMx_abs="356.902434" NOx_abs="11908.871975" fuel_abs="381.484742" electricity_abs="0"/>
    </tripinfo>
    <tripinfo id="myflow.19" depart="69.00" departLane="1to2_1" departPos="5.10" departSpeed="0.00" departDelay="0.60" arrival="159.00" arrivalLane="2to3_1" arrivalPos="96.00" arrivalSpeed="14.10" duration="90.00" routeLength="1094.90" waitingTime="0.00" waitingCount="0" stopTime="0.00" timeLoss="13.30" rerouteNo="0" devices="tripinfo_myflow.19 routing_myflow.19 emissions_myflow.19 fcd_myflow.19 glosa_myflow.19" vType="CAV" speedFactor="1.03" vaporized="">
        <emissions CO_abs="2536.201403" CO2_abs="1395465.970323" HC_abs="600.170951" PMx_abs="516.218502" NOx_abs="17525.526714" fuel_abs="556.350592" electricity_abs="0"/>
    </tripinfo>
    <tripinfo id="myflow.16" depart="58.00" departLane="1to2_1" departPos="5.10" departSpeed="0.00" departDelay="0.40" arrival="161.00" arrivalLane="2to3_0" arrivalPos="96.00" arrivalSpeed="11.49" duration="103.00" routeLength="1094.90" waitingTime="0.00" waitingCount="0" stopTime="0.00" timeLoss="13.69" rerouteNo="0" devices="tripinfo_myflow.16 routing_myflow.16 emissions_myflow.16 fcd_myflow.16 glosa_myflow.16" vType="CAV" speedFactor="0.89" vaporized="">
        <emissions CO_abs="2489.510513" CO2_abs="1285318.311283" HC_abs="631.826511" PMx_abs="496.088297" NOx_abs="16086.593284" fuel_abs="512.436399" electricity_abs="0"/>
    </tripinfo>
    <tripinfo id="myflow.20" depart="72.00" departLane="1to2_1" departPos="5.10" departSpeed="0.00" departDelay="0.00" arrival="161.00" arrivalLane="2to3_1" arrivalPos="96.00" arrivalSpeed="14.46" duration="89.00" routeLength="1094.90" waitingTime="0.00" waitingCount="0" stopTime="0.00" timeLoss="18.74" rerouteNo="0" devices="tripinfo_myflow.20 routing_myflow.20 emissions_myflow.20 fcd_myflow.20 glosa_myflow.20" vType="CAV" speedFactor="1.13" vaporized="">
        <emissions CO_abs="2828.211519" CO2_abs="1667354.994407" HC_abs="640.149475" PMx_abs="595.754209" NOx_abs="20846.276023" fuel_abs="664.748501" electricity_abs="0"/>
    </tripinfo>
    <tripinfo id="myflow.22" depart="80.00" departLane="1to2_1" departPos="5.10" departSpeed="0.00" departDelay="0.80" arrival="162.00" arrivalLane="2to3_1" arrivalPos="96.00" arrivalSpeed="14.85" duration="82.00" routeLength="1094.90" waitingTime="0.00" waitingCount="0" stopTime="0.00" timeLoss="13.71" rerouteNo="0" devices="tripinfo_myflow.22 routing_myflow.22 emissions_myflow.22 fcd_myflow.22 glosa_myflow.22" vType="CAV" speedFactor="1.15" vaporized="">
        <emissions CO_abs="2457.844348" CO2_abs="1452849.246494" HC_abs="555.861716" PMx_abs="517.351940" NOx_abs="18164.931415" fuel_abs="579.228429" electricity_abs="0"/>
    </tripinfo>
    <tripinfo id="myflow.18" depart="65.00" departLane="1to2_1" departPos="5.10" departSpeed="0.00" departDelay="0.20" arrival="164.00" arrivalLane="2to3_0" arrivalPos="96.00" arrivalSpeed="12.05" duration="99.00" routeLength="1094.90" waitingTime="0.00" waitingCount="0" stopTime="0.00" timeLoss="7.88" rerouteNo="0" devices="tripinfo_myflow.18 routing_myflow.18 emissions_myflow.18 fcd_myflow.18 glosa_myflow.18" vType="CAV" speedFactor="0.87" vaporized="">
        <emissions CO_abs="2285.328925" CO2_abs="1156911.535637" HC_abs="570.923976" PMx_abs="447.812037" NOx_abs="14593.635883" fuel_abs="461.242627" electricity_abs="0"/>
    </tripinfo>
    <tripinfo id="myflow.23" depart="83.00" departLane="1to2_1" departPos="5.10" departSpeed="0.00" departDelay="0.20" arrival="164.00" arrivalLane="2to3_1" arrivalPos="96.00" arrivalSpeed="15.38" duration="81.00" routeLength="1094.90" waitingTime="0.00" waitingCount="0" stopTime="0.00" timeLoss="10.39" rerouteNo="0" devices="tripinfo_myflow.23 routing_myflow.23 emissions_myflow.23 fcd_myflow.23 glosa_myflow.23" vType="CAV" speedFactor="1.12" vaporized="">
        <emissions CO_abs="2595.183245" CO2_abs="1522676.423776" HC_abs="581.613665" PMx_abs="542.142107" NOx_abs="19094.592251" fuel_abs="607.067448" electricity_abs="0"/>
    </tripinfo>
    <tripinfo id="myflow.21" depart="76.00" departLane="1to2_1" departPos="5.10" departSpeed="0.00" departDelay="0.40" arrival="172.00" arrivalLane="2to3_0" arrivalPos="96.00" arrivalSpeed="12.40" duration="96.00" routeLength="1094.90" waitingTime="0.00" waitingCount="0" stopTime="0.00" timeLoss="7.24" rerouteNo="0" devices="tripinfo_myflow.21 routing_myflow.21 emissions_myflow.21 fcd_myflow.21 glosa_myflow.21" vType="CAV" speedFactor="0.89" vaporized="">
        <emissions CO_abs="2186.827598" CO2_abs="1145333.231511" HC_abs="529.700091" PMx_abs="434.252368" NOx_abs="14452.007559" fuel_abs="456.626536" electricity_abs="0"/>
    </tripinfo>
    <tripinfo id="myflow.24" depart="87.00" departLane="1to2_1" departPos="5.10" departSpeed="0.00" departDelay="0.60" arrival="174.00" arrivalLane="2to3_0" arrivalPos="96.00" arrivalSpeed="12.99" duration="87.00" routeLength="1094.90" waitingTime="0.00" waitingCount="0" stopTime="0.00" timeLoss="7.05" rerouteNo="0" devices="tripinfo_myflow.24 routing_myflow.24 emissions_myflow.24 fcd_myflow.24 glosa_myflow.24" vType="CAV" speedFactor="0.99" vaporized="">
        <emissions CO_abs="2161.184081" CO2_abs="1165523.609637" HC_abs="513.036877" PMx_abs="433.997334" NOx_abs="14683.267833" fuel_abs="464.676157" electricity_abs="0"/>
    </tripinfo>
    <tripinfo id="myflow.25" depart="90.00" departLane="1to2_1" departPos="5.10" departSpeed="0.00" departDelay="0.00" arrival="178.00" arrivalLane="2to3_0" arrivalPos="96.00" arrivalSpeed="13.44" duration="88.00" routeLength="1094.90" waitingTime="0.00" waitingCount="0" stopTime="0.00" timeLoss="6.47" rerouteNo="0" devices="tripinfo_myflow.25 routing_myflow.25 emissions_myflow.25 fcd_myflow.25 glosa_myflow.25" vType="CAV" speedFactor="0.97" vaporized="">
        <emissions CO_abs="2237.204022" CO2_abs="1200096.180390" HC_abs="533.691241" PMx_abs="448.274620" NOx_abs="15118.174125" fuel_abs="478.459698" electricity_abs="0"/>
    </tripinfo>
    <tripinfo id="myflow.26" depart="94.00" departLane="1to2_1" departPos="5.10" departSpeed="0.00" departDelay="0.40" arrival="178.00" arrivalLane="2to3_1" arrivalPos="96.00" arrivalSpeed="13.35" duration="84.00" routeLength="1094.90" waitingTime="0.00" waitingCount="0" stopTime="0.00" timeLoss="6.65" rerouteNo="0" devices="tripinfo_myflow.26 routing_myflow.26 emissions_myflow.26 fcd_myflow.26 glosa_myflow.26" vType="CAV" speedFactor="1.02" vaporized="">
        <emissions CO_abs="2248.741454" CO2_abs="1193846.275042" HC_abs="531.268739" PMx_abs="446.636207" NOx_abs="15105.437268" fuel_abs="475.967983" electricity_abs="0"/>
    </tripinfo>
    <tripinfo id="myflow.28" depart="101.00" departLane="1to2_1" departPos="5.10" departSpeed="0.00" departDelay="0.20" arrival="180.00" arrivalLane="2to3_0" arrivalPos="96.00" arrivalSpeed="14.49" duration="79.00" routeLength="1094.90" waitingTime="0.00" waitingCount="0" stopTime="0.00" timeLoss="7.06" rerouteNo="0" devices="tripinfo_myflow.28 routing_myflow.28 emissions_myflow.28 fcd_myflow.28 glosa_myflow.28" vType="CAV" speedFactor="1.10" vaporized="">
        <emissions CO_abs="2244.671063" CO2_abs="1259577.475387" HC_abs="510.597650" PMx_abs="457.154629" NOx_abs="15888.781052" fuel_abs="502.174005" electricity_abs="0"/>
    </tripinfo>
    <tripinfo id="myflow.27" depart="98.00" departLane="1to2_1" departPos="5.10" departSpeed="0.00" departDelay="0.80" arrival="183.00" arrivalLane="2to3_0" arrivalPos="96.00" arrivalSpeed="12.08" duration="85.00" routeLength="1094.90" waitingTime="0.00" waitingCount="0" stopTime="0.00" timeLoss="6.83" rerouteNo="0" devices="tripinfo_myflow.27 routing_myflow.27 emissions_myflow.27 fcd_myflow.27 glosa_myflow.27" vType="CAV" speedFactor="0.94" vaporized="">
        <emissions CO_abs="1985.634413" CO2_abs="1061587.410497" HC_abs="474.072213" PMx_abs="397.006422" NOx_abs="13384.633719" fuel_abs="423.238422" electricity_abs="0"/>
    </tripinfo>
    <tripinfo id="myflow.30" depart="108.00" departLane="1to2_1" departPos="5.10" departSpeed="0.00" departDelay="0.00" arrival="235.00" arrivalLane="2to3_0" arrivalPos="96.00" arrivalSpeed="13.57" duration="127.00" routeLength="1094.90" waitingTime="38.00" waitingCount="1" stopTime="0.00" timeLoss="50.17" rerouteNo="0" devices="tripinfo_myflow.30 routing_myflow.30 emissions_myflow.30 fcd_myflow.30 glosa_myflow.30" vType="CAV" speedFactor="1.03" vaporized="">
        <emissions CO_abs="2992.170401" CO2_abs="1397003.849014" HC_abs="846.440460" PMx_abs="594.168270" NOx_abs="17232.330942" fuel_abs="556.963720" electricity_abs="0"/>
    </tripinfo>
    <tripinfo id="myflow.31" depart="112.00" departLane="1to2_1" departPos="5.10" departSpeed="0.00" departDelay="0.40" arrival="236.00" arrivalLane="2to3_1" arrivalPos="96.00" arrivalSpeed="13.70" duration="124.00" routeLength="1094.90" waitingTime="37.00" waitingCount="1" stopTime="0.00" timeLoss="49.23" rerouteNo="0" devices="tripinfo_myflow.31 routing_myflow.31 emissions_myflow.31 fcd_myflow.31 glosa_myflow.31" vType="CAV" speedFactor="1.07" vaporized="">
        <emissions CO_abs="3101.224269" CO2_abs="1494233.491959" HC_abs="847.532060" PMx_abs="620.930085" NOx_abs="18518.974952" fuel_abs="595.727664" electricity_abs="0"/>
    </tripinfo>
    <tripinfo id="myflow.32" depart="116.00" departLane="1to2_1" departPos="5.10" departSpeed="0.00" departDelay="0.80" arrival="237.00" arrivalLane="2to3_0" arrivalPos="96.00" arrivalSpeed="13.42" duration="121.00" routeLength="1094.90" waitingTime="32.00" waitingCount="1" stopTime="0.00" timeLoss="44.74" rerouteNo="0" devices="tripinfo_myflow.32 routing_myflow.32 emissions_myflow.32 fcd_myflow.32 glosa_myflow.32" vType="CAV" speedFactor="1.04" vaporized="">
        <emissions CO_abs="3024.601103" CO2_abs="1480397.586412" HC_abs="827.590423" PMx_abs="607.285637" NOx_abs="18293.941903" fuel_abs="590.211510" electricity_abs="0"/>
    </tripinfo>
    <tripinfo id="myflow.35" depart="126.00" departLane="1to2_1" departPos="5.10" departSpeed="0.00" departDelay="0.00" arrival="239.00" arrivalLane="2to3_0" arrivalPos="96.00" arrivalSpeed="13.49" duration="113.00" routeLength="1094.90" waitingTime="14.00" waitingCount="1" stopTime="0.00" timeLoss="35.30" rerouteNo="0" devices="tripinfo_myflow.35 routing_myflow.35 emissions_myflow.35 fcd_myflow.35 glosa_myflow.35" vType="CAV" speedFactor="1.02" vaporized="">
        <emissions CO_abs="2352.239110" CO2_abs="1220432.849504" HC_abs="609.670007" PMx_abs="479.193073" NOx_abs="15152.529447" fuel_abs="486.567578" electricity_abs="0"/>
    </tripinfo>
    <tripinfo id="myflow.29" depart="105.00" departLane="1to2_1" departPos="5.10" departSpeed="0.00" departDelay="0.60" arrival="240.00" arrivalLane="2to3_1" arrivalPos="96.00" arrivalSpeed="10.80" duration="135.00" routeLength="1094.90" waitingTime="25.00" waitingCount="1" stopTime="0.00" timeLoss="39.68" rerouteNo="0" devices="tripinfo_myflow.29 routing_myflow.29 emissions_myflow.29 fcd_myflow.29 glosa_myflow.29" vType="CAV" speedFactor="0.83" vaporized="">
        <emissions CO_abs="2803.257549" CO2_abs="1282038.196151" HC_abs="797.883956" PMx_abs="548.049059" NOx_abs="15874.209691" fuel_abs="511.128646" electricity_abs="0"/>
    </tripinfo>
    <tripinfo id="myflow.34" depart="123.00" departLane="1to2_1" departPos="5.10" departSpeed="0.00" departDelay="0.60" arrival="241.00" arrivalLane="2to3_0" arrivalPos="96.00" arrivalSpeed="11.58" duration="118.00" routeLength="1094.90" waitingTime="9.00" waitingCount="1" stopTime="0.00" timeLoss="30.41" rerouteNo="0" devices="tripinfo_myflow.34 routing_myflow.34 emissions_myflow.34 fcd_myflow.34 glosa_myflow.34" vType="CAV" speedFactor="0.90" vaporized="">
        <emissions CO_abs="2075.229680" CO2_abs="1071037.358993" HC_abs="538.749144" PMx_abs="420.160203" NOx_abs="13315.392222" fuel_abs="427.005903" electricity_abs="0"/>
    </tripinfo>
    <tripinfo id="myflow.37" depart="134.00" departLane="1to2_1" departPos="5.10" departSpeed="0.00" departDelay="0.80" arrival="241.00" arrivalLane="2to3_1" arrivalPos="96.00" arrivalSpeed="11.68" duration="107.00" routeLength="1094.90" waitingTime="7.00" waitingCount="1" stopTime="0.00" timeLoss="32.76" rerouteNo="0" devices="tripinfo_myflow.37 routing_myflow.37 emissions_myflow.37 fcd_myflow.37 glosa_myflow.37" vType="CAV" speedFactor="1.06" vaporized="">
        <emissions CO_abs="2028.116931" CO2_abs="1093951.605314" HC_abs="515.472059" PMx_abs="418.029884" NOx_abs="13557.940116" fuel_abs="436.141493" electricity_abs="0"/>
    </tripinfo>
    <tripinfo id="myflow.38" depart="137.00" departLane="1to2_1" departPos="5.10" departSpeed="0.00" departDelay="0.20" arrival="243.00" arrivalLane="2to3_1" arrivalPos="96.00" arrivalSpeed="14.03" duration="106.00" routeLength="1094.90" waitingTime="5.00" waitingCount="1" stopTime="0.00" timeLoss="38.08" rerouteNo="0" devices="tripinfo_myflow.38 routing_myflow.38 emissions_myflow.38 fcd_myflow.38 glosa_myflow.38" vType="CAV" speedFactor="1.17" vaporized="">
        <emissions CO_abs="2094.428076" CO2_abs="1223536.396492" HC_abs="488.657901" PMx_abs="444.908739" NOx_abs="15226.978513" fuel_abs="487.804907" electricity_abs="0"/>
    </tripinfo>
    <tripinfo id="myflow.33" depart="119.00" departLane="1to2_1" departPos="5.10" departSpeed="0.00" departDelay="0.20" arrival="245.00" arrivalLane="2to3_0" arrivalPos="96.00" arrivalSpeed="10.30" duration="126.00" routeLength="1094.90" waitingTime="6.00" waitingCount="1" stopTime="0.00" timeLoss="23.09" rerouteNo="0" devices="tripinfo_myflow.33 routing_myflow.33 emissions_myflow.33 fcd_myflow.33 glosa_myflow.33" vType="CAV" speedFactor="0.77" vaporized="">
        <emissions CO_abs="1856.733236" CO2_abs="933940.098312" HC_abs="490.104226" PMx_abs="371.920638" NOx_abs="11632.333313" fuel_abs="372.347338" electricity_abs="0"/>
    </tripinfo>
    <tripinfo id="myflow.39" depart="141.00" departLane="1to2_1" departPos="5.10" departSpeed="0.00" departDelay="0.60" arrival="245.00" arrivalLane="2to3_1" arrivalPos="96.00" arrivalSpeed="13.54" duration="104.00" routeLength="1094.90" waitingTime="5.00" waitingCount="1" stopTime="0.00" timeLoss="28.12" rerouteNo="0" devices="tripinfo_myflow.39 routing_myflow.39 emissions_myflow.39 fcd_myflow.39 glosa_myflow.39" vType="CAV" speedFactor="1.05" vaporized="">
        <emissions CO_abs="1968.767153" CO2_abs="1130836.615672" HC_abs="480.384836" PMx_abs="417.612302" NOx_abs="13982.347520" fuel_abs="450.846943" electricity_abs="0"/>
    </tripinfo>
    <tripinfo id="myflow.41" depart="148.00" departLane="1to2_1" departPos="5.10" departSpeed="0.00" departDelay="0.40" arrival="246.00" arrivalLane="2to3_1" arrivalPos="96.00" arrivalSpeed="15.17" duration="98.00" routeLength="1094.90" waitingTime="4.00" waitingCount="1" stopTime="0.00" timeLoss="26.31" rerouteNo="0" devices="tripinfo_myflow.41 routing_myflow.41 emissions_myflow.41 fcd_myflow.41 glosa_myflow.41" vType="CAV" speedFactor="1.10" vaporized="">
        <emissions CO_abs="1706.581325" CO2_abs="1027902.694865" HC_abs="389.084579" PMx_abs="366.901571" NOx_abs="12783.199274" fuel_abs="409.808786" electricity_abs="0"/>
    </tripinfo>
    <tripinfo id="myflow.36" depart="130.00" departLane="1to2_1" departPos="5.10" departSpeed="0.00" departDelay="0.40" arrival="247.00" arrivalLane="2to3_0" arrivalPos="96.00" arrivalSpeed="11.32" duration="117.00" routeLength="1094.90" waitingTime="5.00" waitingCount="1" stopTime="0.00" timeLoss="26.45" rerouteNo="0" devices="tripinfo_myflow.36 routing_myflow.36 emissions_myflow.36 fcd_myflow.36 glosa_myflow.36" vType="CAV" speedFactor="0.88" vaporized="">
        <emissions CO_abs="1879.658962" CO2_abs="975568.719237" HC_abs="473.642739" PMx_abs="375.962207" NOx_abs="12223.956326" fuel_abs="388.944043" electricity_abs="0"/>
    </tripinfo>
    <tripinfo id="myflow.40" depart="144.00" departLane="1to2_1" departPos="5.10" departSpeed="0.00" departDelay="0.00" arrival="248.00" arrivalLane="2to3_0" arrivalPos="96.00" arrivalSpeed="12.48" duration="104.00" routeLength="1094.90" waitingTime="5.00" waitingCount="1" stopTime="0.00" timeLoss="25.42" rerouteNo="0" devices="tripinfo_myflow.40 routing_myflow.40 emissions_myflow.40 fcd_myflow.40 glosa_myflow.40" vType="CAV" speedFactor="1.00" vaporized="">
        <emissions CO_abs="1773.241948" CO2_abs="1009211.658257" HC_abs="427.010329" PMx_abs="371.307430" NOx_abs="12547.764692" fuel_abs="402.356956" electricity_abs="0"/>
    </tripinfo>
    <tripinfo id="myflow.44" depart="159.00" departLane="1to2_1" departPos="5.10" departSpeed="0.00" departDelay="0.60" arrival="248.00" arrivalLane="2to3_1" arrivalPos="96.00" arrivalSpeed="14.13" duration="89.00" routeLength="1094.90" waitingTime="0.00" waitingCount="0" stopTime="0.00" timeLoss="11.65" rerouteNo="0" devices="tripinfo_myflow.44 routing_myflow.44 emissions_myflow.44 fcd_myflow.44 glosa_myflow.44" vType="CAV" speedFactor="1.02" vaporized="">
        <emissions CO_abs="2472.272133" CO2_abs="1387492.338637" HC_abs="575.994495" PMx_abs="507.293111" NOx_abs="17412.221742" fuel_abs="553.171615" electricity_abs="0"/>
    </tripinfo>
    <tripinfo id="myflow.43" depart="155.00" departLane="1to2_1" departPos="5.10" departSpeed="0.00" departDelay="0.20" arrival="250.00" arrivalLane="2to3_0" arrivalPos="96.00" arrivalSpeed="13.07" duration="95.00" routeLength="1094.90" waitingTime="0.00" waitingCount="0" stopTime="0.00" timeLoss="12.75" rerouteNo="0" devices="tripinfo_myflow.43 routing_myflow.43 emissions_myflow.43 fcd_myflow.43 glosa_myflow.43" vType="CAV" speedFactor="0.96" vaporized="">
        <emissions CO_abs="2597.942238" CO2_abs="1391021.694414" HC_abs="644.564637" PMx_abs="524.346305" NOx_abs="17376.403891" fuel_abs="554.578716" electricity_abs="0"/>
    </tripinfo>